LAMMPS data file via write_data, version 22 Jul 2025, timestep = 25000, units = real

640 atoms
4 atom types

-1.486499 33.513501 xlo xhi
-0.121501 34.878499 ylo yhi
0.0475 35.0475 zlo zhi

Masses

1 12.0107
2 1.00794
3 126.904472
4 15.9994

Atoms # charge

2 3 0.6653566413510577 2.2035986790215984 6.312099302096778 8.173396448619341 0 0 0
243 4 -0.3770919464052356 0.6767840027256454 7.5837000820747305 8.4735200942596 1 0 0
242 4 -0.3880131783342979 0.4304788776982618 5.336607398737329 7.879908511639597 1 0 0
246 1 0.423661665834234 -0.26065506710603153 6.581437784218389 8.052563509225417 1 0 0
512 4 -0.3330968149449573 5.487684436682237 0.3095454726387503 9.803583338127265 0 1 0
513 4 -0.3583793332478761 6.331814272040954 1.6192157247421979 8.05248857755166 0 1 0
5 3 0.6180543747885729 9.025069663557993 2.3232824403079957 6.7081791549768175 0 0 0
101 4 -0.3409857753852877 7.934092114770698 6.102298457314062 3.9055467658155374 0 0 0
102 4 -0.3224652632163308 9.85328811216265 6.022377275088108 5.227644759069619 0 0 0
103 4 -0.3527102364795358 9.777839004886212 4.859149008045274 3.174145276517616 0 0 0
104 1 -0.01274466117396617 7.575665584865603 6.862847551541322 5.205495609613714 0 0 0
105 1 0.02814493035729068 8.996311653344126 7.203592480725685 5.609530602399605 0 0 0
106 1 0.4409714131622238 9.219031592709129 5.614388468974066 4.047938153815604 0 0 0
107 2 0.05836852161473616 7.047017978230413 6.186456279475501 5.887653211386365 0 0 0
108 2 0.0910712335144703 6.926360874977136 7.714759899624095 5.102646265556573 0 0 0
109 2 0.0835027660306842 9.345841517414593 8.046529926864794 5.029730301440612 0 0 0
110 2 0.01695124646022291 9.051545221838404 7.560781072369296 6.652185463885871 0 0 0
301 4 -0.4014055017927948 11.532566190186753 3.3823828923720463 7.603171530461021 0 0 0
306 1 0.3134633980223934 10.966778693563887 4.530335428550928 8.293961402801992 0 0 0
302 4 -0.4462686280973154 9.559366998975715 4.79903188906655 8.28408579734731 0 0 0
303 4 -0.4376789037431557 11.724822477507422 5.039049160421479 9.382683542585745 0 0 0
28 3 0.6500482303606668 9.952669175423908 6.432031651907868 9.179583361143958 0 0 0
516 1 0.4396443225927659 6.538181602629872 0.8828582208376766 9.112818033742391 0 1 0
511 4 -0.3347199772706749 7.7931671910372 0.7369741219272841 9.643385631319612 0 1 0
388 2 0.04019428464856174 12.48448502698488 3.5713876241164577 0.8616472365196273 0 0 1
517 2 0.002949310368588837 7.66958441947162 0.41174339127517495 11.712168130444471 0 1 0
381 4 -0.3003937275431845 14.655389294801429 3.419050507050007 0.7654164298072192 0 0 1
27 3 0.5442833621428826 13.875155583659641 3.5892394801012744 8.437030144580397 0 0 0
387 2 0.09208575554511256 13.273460694953455 4.3485902019191105 2.213110630981826 0 0 1
384 1 0.007503942038189229 13.346332196726532 4.164856468018603 1.1500138195393097 0 0 1
390 2 0.07170787428087688 13.558633066690296 6.345750325820101 0.7523834012913073 0 0 1
385 1 0.0274203012973228 13.308438277221262 5.3839361328586195 0.28690660450388755 0 0 1
63 4 -0.3050937418441493 22.69932372416061 3.5945248877192784 11.368283745914512 0 0 0
554 1 -0.001046285113640855 25.701788621965882 2.472615375809984 9.061875135812983 0 0 0
560 2 0.1221183829166506 25.801576602817224 4.147194443781901 10.447195003165163 0 0 0
552 4 -0.3149385761788208 26.47829102625628 4.646816940546675 8.519056566995923 0 0 0
555 1 -0.03333161325361893 25.499382742534273 3.9174296160967024 9.436316686224217 0 0 0
559 2 0.1152423925790554 24.489242815430984 4.283998811878541 9.313501072696443 0 0 0
558 2 0.07081198425002197 25.152417858779515 2.2139068594622278 8.155848547635575 0 0 0
557 2 0.08093104371236541 25.406244307293885 1.7674197019460542 9.811298439580778 0 0 0
241 4 -0.2867822230186572 33.47107615283875 6.786370969596929 7.852579949857641 0 0 0
551 4 -0.3071461718044695 27.1974077938086 2.4309396025632712 8.70713482024862 0 0 0
556 1 0.4678916458776137 27.485111121081495 3.719549290051418 8.274944325513866 0 0 0
553 4 -0.3315919803129996 28.60216218188604 3.9989964508942037 7.697446678982342 0 0 0
462 4 -0.310398017137663 33.27892793559906 4.486951886911309 1.9413599310407665 0 1 0
463 4 -0.3981675937820872 31.230197066882752 5.291825414081963 2.8933224984275543 0 1 0
6 3 0.6488787622439639 30.85259922331841 4.865373398076271 4.949272603898612 0 0 0
466 1 0.4095414251985747 32.38228179302184 4.488206449207472 2.893257187788932 0 1 0
461 4 -0.3815332612011489 32.442827579444554 3.5872616681031455 3.983832623898244 0 1 0
24 3 0.6306453254962738 2.476856122395585 16.377147246999083 9.115302210368853 0 0 0
128 2 0.04705027303118237 3.626305198616242 10.405412161409554 10.329494735175867 0 0 0
124 1 0.01975795692319103 4.2517298503316105 11.043962113684465 9.726050348000378 0 0 0
129 2 0.02625907732578134 2.478315258981973 11.46204586610482 8.45382677748977 0 0 0
122 4 -0.3068483409825044 3.9977573013311973 10.181922305303392 7.488997380944417 0 0 0
125 1 -0.01367987449175957 3.555151048019244 11.354173543444434 8.414883124376006 0 0 0
127 2 0.05608416127928748 4.5131337275344166 11.906739422627622 10.338350179162028 0 0 0
126 1 0.4545306053653494 5.156559296372348 9.678150399967466 8.058816938436962 0 0 0
130 2 0.1029789448588429 3.9658069491222467 12.24590534983649 7.958458641841459 0 0 0
121 4 -0.3201356459891002 5.474877417180494 10.219233157176985 9.307200280982705 0 0 0
123 4 -0.3465780708607077 5.856548160474129 8.74796065259214 7.518013472885292 0 0 0
428 2 0.08453679708317061 8.683987972513851 12.981949101307553 0.26609713810687735 0 0 0
113 4 -0.3300014762971462 6.218911954405841 12.942144442758064 8.97829683096452 0 0 0
111 4 -0.3025050084953453 7.757085466721458 14.174367147969912 7.720644646067879 0 0 0
112 4 -0.3134628548056371 6.269445696120139 12.746165930230335 6.6103747021149 0 0 0
114 1 -0.01788050100396613 7.990044510851822 14.382477605118812 6.194797112869598 0 0 0
115 1 -0.02289679071217205 7.37525143111584 13.12351862336091 5.6367373265884515 0 0 0
116 1 0.4366704780591247 6.703895837407937 13.28534886049845 7.832430684324421 0 0 0
117 2 0.0835356759068516 9.016001263931178 14.560172263397835 5.897476791314549 0 0 0
118 2 0.1281490902815428 7.413972067859111 15.270945018582976 5.877925967694583 0 0 0
120 2 0.125492271418399 8.0750509434349 12.276665128272713 5.653041150435316 0 0 0
411 4 -0.3391051141638026 10.000337662131525 10.20625980891134 9.706196224414617 0 0 0
412 4 -0.3121965766749658 9.490371442903536 11.003795842669172 7.5609331657297485 0 0 0
414 1 0.02951767798334352 8.513255689097413 10.01934817481325 9.48364315161826 0 0 0
415 1 -0.06960606495020649 8.210670962772896 11.004689259547163 8.380626405681317 0 0 0
417 2 0.07707378634547224 7.941065838454967 10.195927798325986 10.380321816600127 0 0 0
418 2 0.008511946524360027 8.287620628123005 8.990720089712816 9.15532220928213 0 0 0
419 2 0.163666829290055 7.344976751413726 10.802421163264517 7.769528804287216 0 0 0
420 2 0.1703839135453951 8.100864576877202 12.001901759578406 8.808741949691177 0 0 0
421 4 -0.3286435790363773 8.976291437930136 13.318791698132364 2.341368012587558 0 0 0
422 4 -0.316418171651731 6.8997985591395965 14.288802913647345 1.929731085336394 0 0 0
423 4 -0.3347022232214336 8.443508181804605 15.384864084613037 3.35476052185342 0 0 0
424 1 0.003177102305720297 8.308459220562584 12.538306344691218 1.2019542462323065 0 0 0
425 1 -0.03431054290538873 6.849079705432199 12.831722830193304 1.3731787719057338 0 0 0
426 1 0.4447044115777285 8.114620803604334 14.404906803115159 2.585775397928028 0 0 0
427 2 0.07418555562323929 8.577609268557131 11.477292479809874 1.1998562107227966 0 0 0
430 2 0.09442306726928075 6.401910513638776 12.18805630624758 2.130948268720665 0 0 0
119 2 0.1015544842179111 7.029870951249948 13.214316390479379 4.609256194954104 0 0 0
416 1 0.4642412909853854 10.483455685010684 10.64177291075426 8.483021599312492 0 0 0
413 4 -0.306817785189639 11.736817381847754 10.678568595050862 8.202678797543538 0 0 0
429 2 0.1194799398489015 6.264586623787146 12.725883276188007 0.4907587117247638 0 0 0
83 4 -0.3789073461548939 7.168934425304822 9.216186128003919 0.07435894481437298 0 0 1
79 2 0.0848198688661233 7.26870267720181 16.97375777651597 0.09334488413578743 0 0 1
193 4 -0.4441657143481684 16.023714082541197 16.04872514303517 4.0448711829615425 0 0 0
8 3 0.6444786186013118 14.720616172665096 15.295026028100128 4.94700833316193 0 0 0
549 2 0.05455052128080184 20.767847814283126 16.45550340292729 10.657541001931023 0 0 1
545 1 -0.1055589603866235 20.194851078391 17.34730840038561 10.854008498921782 0 0 1
55 1 0.01062356089186546 31.348062243218354 14.968186970233068 0.31847041703425166 0 0 0
54 1 0.0007525033592048203 32.11241543445367 13.982376482011599 1.1738858983678944 0 0 0
53 4 -0.2743161239512175 28.8538920042449 13.907757943901336 2.6094061599018974 0 0 0
51 4 -0.2977412954855906 30.985944946326956 13.242578977635032 1.8816345503303051 0 0 0
56 1 0.4815788033705427 29.906577031869485 14.136766200501587 1.9251782629988752 0 0 0
58 2 0.06733255063153429 32.72333099210798 14.48613591557296 1.9233003219464437 0 0 0
52 4 -0.3030787420353035 30.08807861345901 15.25860025099629 1.116839635042244 0 0 0
57 2 0.04368691854629639 32.73937447502053 13.294197917903873 0.6418352731437058 0 0 0
59 2 0.04639321289434159 31.879659139877624 15.876865822914601 0.10045546218140525 0 0 0
10 3 0.5498389539801194 5.318199439954716 2.9023587883118442 12.32836120391784 0 0 0
331 4 -0.2840581862945205 5.0476564271995175 3.2532905592137196 22.43171460483529 0 0 0
366 1 0.4452870931606513 3.809076503387392 5.943229358753872 12.226482697897309 0 0 0
362 4 -0.3692519242582031 5.1365406850578985 6.170848216945848 12.45213454220838 0 0 0
363 4 -0.3789979730641367 3.3679757143906808 4.766460093738515 11.806760371379552 0 0 0
364 1 0.02862125196465409 3.9062079074151614 8.152675465694422 13.065616466854106 0 0 0
361 4 -0.3124523383576154 2.9808397511085034 6.999421888126393 12.492567593954561 0 0 0
365 1 -0.0206745294771602 5.348548331977019 7.752445074530401 12.926484381190887 0 0 0
367 2 0.02721146477545432 3.613909942405597 8.381065762457895 14.101471624100284 0 0 0
338 2 0.04213812582677953 5.034425914918906 1.1458916215310178 23.02197288382571 0 0 0
337 2 0.08113319199586323 5.68950221102092 1.4451692780525451 21.48348731465064 0 0 0
370 2 0.05347363927639409 5.928329710212456 7.918504572752357 13.830324113725066 0 0 0
334 1 0.01133206886900051 5.646715291229383 1.8780759640992513 22.454916873745777 0 0 0
26 3 0.5600578273580938 6.483271484301847 7.181467261084747 23.380570440033775 0 0 0
336 1 0.351364181913672 6.18387091535903 4.179931794212598 22.498699514706722 0 0 0
333 4 -0.3825366886108165 6.024848282553938 5.5382157486156505 21.95882175600144 0 0 0
369 2 0.06694600323218583 5.876230863970029 8.18519095274807 12.083854448162135 0 0 0
332 4 -0.3041620639205447 7.482174276920526 3.4819715999819407 22.548203918868474 0 0 0
335 1 0.019939804630421 7.072401316406575 2.1321939404404167 22.985488690140507 0 0 0
340 2 0.05595347027935021 7.814901616292723 1.4214602868190218 22.680823680605343 0 0 0
507 2 0.06470874822774836 13.015175674357677 5.5910488543716435 20.110559171797156 0 1 0
505 1 -0.1360016945885623 14.064299761451938 6.437015543937199 21.724446713544136 0 1 0
510 2 0.09938049193799486 14.510475250372213 7.254851287330546 21.17690399663135 0 1 0
509 2 0.0791950766471356 14.466316120462652 6.323135859606881 22.712399138020515 0 1 0
504 1 -0.1218596936723436 13.417932696097056 5.4367371357641 21.09900537731395 0 1 0
508 2 0.07209403481568633 13.066167210484485 4.582355466635932 21.607100164089342 0 1 0
521 4 -0.3144008776579805 19.16135748913437 6.303582170760571 19.582417501557323 0 0 0
524 1 -0.003226227508276058 17.694163016167256 6.67945597793518 19.98776095545086 0 0 0
526 1 0.4669873894268071 19.108612867220856 6.058860612834663 18.207492968601702 0 0 0
527 2 0.06151972373863904 17.673524989538436 7.4030582194016805 20.78574256152895 0 0 0
528 2 0.06464461963597971 17.20734746596317 5.79382101677629 20.335392579532126 0 0 0
522 4 -0.3153569217564237 17.896715528158264 6.387383606191372 17.60173465201227 0 0 0
50 2 0.1139351295518288 15.503624467936739 6.850760547696562 15.887432154826163 0 0 0
525 1 -0.03278532078353599 17.107737268845433 7.170431873833422 18.691552495295415 0 0 0
587 2 0.01848142633821435 12.679613351186628 7.372830992037567 18.240652732732975 0 0 0
45 1 -0.1294343439407339 14.705879519262727 7.191268126815475 15.241835742436988 0 0 0
49 2 0.05147211895698964 13.726302606523634 6.804696476930445 15.435117329566225 0 0 0
530 2 0.1117270073668361 17.288934457771354 8.222470617205799 18.573435266538777 0 0 0
529 2 0.09524921011074722 16.051569647837816 7.0035085135138875 18.604928958793632 0 0 0
584 1 0.02208006105222683 13.000881055442166 8.403568122065336 17.995698445857222 0 0 0
44 1 -0.1093352178880701 14.902946388650406 8.208704040948232 14.36978561476817 0 0 0
588 2 0.05848338066698587 13.209166054542965 8.378309266689262 16.923531247051244 0 0 0
48 2 0.06401653192188032 14.089520129912032 8.594415320676104 13.76526957045968 0 0 0
523 4 -0.3411586944560473 20.106335797542666 5.579294834360328 17.554949746489612 0 0 0
67 2 0.1209605493671293 20.3805602264164 4.810988589092702 14.899643337369705 0 0 0
68 2 0.08500825273333912 21.617425864658834 5.940904297554348 14.42573054006458 0 0 0
64 1 -0.03101427884878476 21.332010705098085 4.8935244764337185 14.393524196900193 0 0 0
69 2 0.04035929427085217 22.988742999329762 4.451769846886411 15.763699533608298 0 0 0
65 1 0.004692033053996361 22.436984500333804 4.030314393442785 14.91702665914074 0 0 0
308 2 0.1341489892719374 21.762390852281147 4.21805038742268 18.774343323729067 0 0 0
309 2 0.06150958819819363 23.011636841389166 3.3470218243126175 20.723102328842312 0 0 0
305 1 -0.1016229733671172 23.186086845065876 2.9692615318990065 19.720494413983662 0 0 0
304 1 -0.1465592437095523 22.532904530117744 3.4696467516147638 18.664405545487142 0 0 0
307 2 0.07116122310287418 22.71566781991842 3.106905296003872 17.660119243941384 0 0 0
310 2 0.04841656010017453 23.85005271254008 2.123059629240193 19.613824852093927 0 0 0
61 4 -0.3019368429176031 21.158252095855705 4.438374721410176 12.917971910615142 0 0 0
66 1 0.4709572192149538 22.40614314471684 3.924603626603802 12.586331994504642 0 0 0
62 4 -0.3160452940846064 23.309682867910688 3.792078493482316 13.62856525448279 0 0 0
70 2 0.06931762949259195 22.071331227092113 3.064567686355247 15.245313064534454 0 0 0
249 2 0.06853083602059842 23.709169700488587 6.878753137676344 16.765849846296014 0 0 0
245 1 -0.1364530236276211 22.936299969069594 7.233906035789029 17.435125492379996 0 0 0
244 1 -0.1105192872089383 22.731942530620028 8.543046434566149 17.668261552541775 0 0 0
250 2 0.1281598868013882 22.24432686775586 6.457970986018807 17.793264907115685 0 0 0
152 4 -0.3117094122479535 5.10619748380827 11.713743695180188 14.483088186542574 0 0 0
156 1 0.343255613457477 4.055349091631907 12.645762277857958 14.721374969378594 0 0 0
153 4 -0.5084321090078104 3.1365319632188 12.509511452917195 15.848457284025235 0 0 0
33 3 0.6203759431308158 1.9055117546087967 11.663334255144196 15.467413383634101 0 0 0
151 4 -0.3163778607515093 4.24436732734739 13.897429528480684 14.010987746224762 0 0 0
368 2 0.04494294311511685 3.630124081492174 9.032967616170112 12.48502236641619 0 0 0
159 2 0.04670992264438756 4.928171563868422 11.758645527071033 12.371486636040967 0 0 0
158 2 0.04867072094019054 5.6518618066170445 14.266383130292795 12.366293884393611 0 0 0
154 1 0.007405285410030354 5.564454331665179 13.673475520056193 13.313342673530798 0 0 0
590 2 0.07442991774686722 11.45522662402778 9.237955924246988 19.298763396946818 0 0 0
589 2 0.06129619195243972 11.191291202438258 9.577672641615456 17.604696149057094 0 0 0
155 1 -0.0115736804734091 5.685624715536202 12.193230998564353 13.082411562931915 0 0 0
160 2 0.07580675337375813 6.711048192808592 11.845368448245603 12.930775017519935 0 0 0
157 2 0.08823453626639044 6.329683238137042 14.071497956720744 13.96715909273001 0 0 0
131 4 -0.3688242063889347 8.681251909762203 15.285644284457353 18.935416718372384 0 0 0
132 4 -0.3181813112802942 8.644358715561605 12.897039119682352 18.46281833212885 0 0 0
133 4 -0.4244929421738183 10.63867012120477 13.978169889489495 19.28984494135332 0 0 0
134 1 0.02612973368696891 7.344529001166264 14.726251173001442 18.54476969048322 0 0 0
135 1 -0.01771115846041876 7.184643253059625 13.207944628525036 18.165309675049407 0 0 0
136 1 0.3857964303103169 9.272003490454216 14.029580329891335 18.937494632794255 0 0 0
137 2 0.04919511044766697 7.010321130369422 15.3540985594449 17.68907608321746 0 0 0
138 2 0.02896209401930967 6.659141550291772 14.982303496568614 19.36787219415676 0 0 0
139 2 0.07199681601934843 6.489817574491864 12.608444469432266 18.81193837475816 0 0 0
140 2 0.1113136637093066 6.906482797076543 13.000143925389853 17.138810575327604 0 0 0
12 3 0.6204052091917994 10.837543530673445 13.28928950922936 21.282413097048448 0 0 0
17 3 0.5575482477377776 12.266667884435078 15.868518902755552 16.831245483949466 0 0 0
585 1 -0.005783934439059404 11.969860963926765 9.452086204401047 18.352697037865816 0 0 0
593 4 -0.3650972815327084 9.388738744255775 10.60219950465866 22.98884065992741 0 0 0
582 4 -0.3131622858604997 12.889566336617953 10.703351462862006 18.533047718024736 0 0 0
183 4 -0.3907345446791617 14.31369310364791 16.328919103778944 18.5775456829688 0 0 0
47 2 0.07627495755057795 15.863365453876188 8.729246992215005 14.233089563411397 0 0 0
581 4 -0.3265352983443827 14.264826430874875 8.8258218834307 18.738362504846705 0 0 0
583 4 -0.3218905847655867 15.077442506590808 10.953134775156489 19.35700993240219 0 0 0
586 1 0.4732581728376862 14.138753463941036 10.215987147742286 18.892513467243756 0 0 0
25 3 0.5770801993012926 18.486194327417323 15.584191193516371 19.65269933404348 0 0 0
248 2 0.05377201559902686 23.423812121669517 9.294707506135122 17.378918584234928 0 0 0
247 2 0.07664858976926121 21.782366059074548 8.86719023584679 18.051500336738574 0 0 0
23 3 0.6206404502586631 26.50280646214505 16.9650946941367 19.804767403697753 0 0 0
9 3 0.5906579212187335 22.57008373075755 15.859226423094746 16.89141020254622 0 0 0
42 4 -0.4398420289198289 20.574380139084525 16.431485767708132 17.882000928452527 0 0 0
46 1 0.3574648980475817 21.396131689845127 16.384024369449584 19.089108822465885 0 0 0
41 4 -0.407918269903485 22.752663675424593 16.461580184373695 18.932022444291512 0 0 0
43 4 -0.343183064117544 20.722601459038366 16.647766049436083 20.232219968286373 0 0 0
633 4 -0.3822302684119565 26.443746045028963 15.539368866410841 17.06459683986377 0 0 0
635 1 0.01266627828049012 29.82397411756035 16.586764891239824 16.141192365935776 0 0 0
637 2 0.06997665544373537 29.045069714754977 16.846755750199204 14.100622290523965 0 0 0
631 4 -0.3046238248216759 27.854788842250997 15.404301219560775 15.202327752717867 0 0 0
634 1 -0.01167157662922999 29.278263666043774 16.072378861572915 14.843675668112928 0 0 0
442 4 -0.4696897007200924 27.612540257711554 16.55063195379466 22.610876021505575 0 0 0
636 1 0.4576744063616585 27.592702025746433 15.790190557509545 16.494171004511195 0 0 0
632 4 -0.3471855475073917 28.591872714541477 16.50276072158081 17.12983254852253 0 0 0
639 2 0.05240630578966179 30.605946098986134 15.910805660818097 16.512106695461632 0 0 0
638 2 0.06454119557912927 29.891782568176676 15.317348006918262 14.34061921927042 0 0 0
252 4 -0.4494223809107297 0.525591038404985 1.4203225287366559 32.74237969831598 0 1 0
16 3 0.5954572777161939 1.9400341119044424 0.3107113131214175 31.469302452753745 0 1 0
256 1 0.3651644811178326 -0.33812538209139464 0.4691221566061127 32.30816249358875 0 1 0
7 3 0.5439616845972955 8.565190682383813 6.744304396378311 35.00631827961003 0 0 0
339 2 0.03652735448139052 7.01193880687709 2.0900461223760245 24.075133007833465 0 0 0
389 2 -0.02180908649784785 12.332731011437435 5.567606977079974 34.92880962339614 0 0 0
383 4 -0.4432017147061427 16.34782405682843 3.5892079077759385 34.07657184557477 0 0 0
386 1 0.3758978454860163 15.054401583952936 3.9128415589139722 34.52599027342479 0 0 0
1 3 0.607068682191241 15.97741602764607 2.3710289408093863 32.79494849211816 0 0 0
399 2 -0.03001885011447691 19.40720144267438 3.3534657016199954 30.707525265962893 0 0 0
392 4 -0.3582477633550747 18.91349851573281 3.9781511019309703 28.677170328711274 0 0 0
393 4 -0.2877669188668193 16.766761016845397 4.090514783764844 27.6938607756175 0 0 0
396 1 0.4556433195721536 17.637696545692286 3.4746828389323587 28.410384105612806 0 0 0
391 4 -0.333685817879713 17.373337256736377 2.282349683732864 29.08881020258525 0 0 0
382 4 -0.3189134944269634 14.381191890361501 5.039955709322576 34.12191649781499 0 0 0
394 1 0.04980855057093171 18.750986507832096 1.7120265472121547 29.419750180714292 0 0 0
398 2 -0.01926496172682002 18.768371172010767 1.0158037902511883 30.27060714080202 0 0 0
397 2 -0.03797251441505062 19.197547423431587 1.1837312528921127 28.569947026440225 0 0 0
395 1 0.04749364747882745 19.527661395929645 3.006320347522894 29.674046546251226 0 0 0
20 3 0.5762343528978562 19.988170802072688 6.88798610204681 30.386466729515334 0 0 0
400 2 -0.05633615920369298 20.61475663038615 2.92524961945939 29.570547095883416 0 0 0
201 4 -0.3588693919062133 25.40740911686455 2.150529191623301 28.01179773642917 0 0 0
202 4 -0.288543439192712 26.0101547975244 4.321685470204701 27.6132774193299 0 0 0
203 4 -0.3580183680411192 23.75175823516001 3.8270484784925496 27.52590187069999 0 0 0
206 1 0.461700000240106 25.000034535673255 3.4269452602387793 27.69210342104664 0 0 0
22 3 0.5363597558022966 21.947122436927593 1.6197662052966126 27.386458559147815 0 1 0
269 2 0.06117010721166428 24.17722084231382 7.489551119675219 32.04790290555122 0 0 0
265 1 -0.006136470164355715 23.896762379659656 8.525209129115606 32.05374432180121 0 0 0
263 4 -0.373497195697358 21.45122245463594 8.606377150046699 29.540751439376933 0 0 0
266 1 0.4063554211957551 22.540294117621215 8.589428060940131 30.39540550480867 0 0 0
261 4 -0.2928164829982826 23.7746340287525 8.420197142944632 29.833847917954728 0 0 0
35 3 0.587621446992032 33.28376729495583 1.5540734896697204 34.81532430580783 -1 0 0
204 1 -0.0008234357837002826 26.945049118741775 2.230196866700863 28.384730511564154 0 0 0
207 2 0.07799409927961455 27.501378439264325 1.3773135589315573 28.100644964886968 0 0 0
205 1 -0.01845885745879083 27.427665042400267 3.5057614391400906 27.765074333100618 0 0 0
209 2 0.06431274013036942 28.15242904961831 4.098608726479781 28.32394511274617 0 0 0
208 2 0.06332361182777116 26.999581836075677 2.278180243114168 29.496130821393024 0 0 0
210 2 0.0855543605750707 27.89182902022667 3.3651562586451824 26.799839282507726 0 0 0
251 4 -0.3593176353536703 33.30911499782942 0.4391671580789888 32.723737251028446 -1 1 0
543 4 -0.4509960780377656 -1.3745918078794246 13.641917016219177 29.167590800621397 0 0 0
29 3 0.5858345276935679 3.1914607852603813 15.94382906563556 27.608808272202854 0 0 0
542 4 -0.288691705235408 0.6521499497781115 12.781338848328977 28.13361285402948 0 0 0
546 1 0.383565929303067 -0.6581994300237376 12.714879929800503 28.253985675501003 0 0 0
541 4 -0.3329597427380094 -1.3509037346278878 11.77723608357227 27.473553322662585 0 0 0
82 4 -0.3656739717632084 7.968327805401031 9.243180537789284 32.83916496832481 0 0 0
78 2 0.07664080390232529 9.46747268796259 16.32506692675922 34.81980576941201 0 0 0
563 4 -0.3597562414809079 5.945356937105993 15.985322848144424 27.386346382329936 0 0 0
561 4 -0.3496406615304786 5.530201465061114 14.75645381589417 25.398574860831584 0 0 0
86 1 0.4442719686113838 7.326142539212133 9.806268238397104 33.90089171949008 0 0 0
567 2 0.02777146767101869 6.091802109780974 13.578337966440131 23.539003443002485 0 0 0
566 1 0.4642180276287847 6.369755194253028 15.361180450925293 26.287231907717466 0 0 0
81 4 -0.3240680031243212 7.005528707974867 11.122471301978754 33.71911618768825 0 0 0
90 2 0.05339069835938462 9.399533299739229 10.817048157343873 32.17476807325205 0 0 0
85 1 -0.006032573744044603 8.404478481148464 10.485700973411827 31.860690131779776 0 0 0
89 2 0.08288905971268229 8.455169608498313 10.206501518762044 30.801960058596702 0 0 0
84 1 -0.02656918339140645 7.301953017348146 11.44191519715504 32.17061997508929 0 0 0
87 2 0.08853085077223513 7.5292549071031045 12.500420013309698 32.06055235116035 0 0 0
88 2 0.1180633943645733 6.377592795892159 11.263067625001291 31.630593955249093 0 0 0
221 4 -0.328662368872053 8.884717293888112 13.270554735015839 29.90964549718073 0 0 0
222 4 -0.3149914549782862 6.8922575871363385 14.42163532888817 29.67293993224792 0 0 0
223 4 -0.3138218545692117 7.096631131999575 12.249838138462696 28.764150725927397 0 0 0
224 1 -0.006580704721956009 8.976702095109411 14.569089766654058 30.75112711989842 0 0 0
225 1 -0.03391968821084291 7.984457415834128 15.427838594583656 30.0225996187381 0 0 0
226 1 0.4594456385897052 7.593973630242215 13.251134128619098 29.407940630096988 0 0 0
227 2 0.06857769515996578 9.964920862601192 14.977372083336869 30.822536269000967 0 0 0
228 2 0.06689642962086408 8.634222614430456 14.330845382051402 31.770144564891115 0 0 0
229 2 0.09815879277214107 7.6339670170015825 16.307891627730527 30.567391998362975 0 0 0
230 2 0.1315383056179667 8.426557644582802 15.817278679957953 29.092077745529604 0 0 0
562 4 -0.306509697402501 7.689956217992581 15.255922955075249 26.009829088719503 0 0 0
564 1 0.01369296036757481 6.479574775776068 13.778945314001307 24.547684767393243 0 0 0
565 1 -0.01390981637599327 7.792076371942544 14.499495686732624 24.582335426165063 0 0 0
569 2 0.08844404923947655 8.671577362499052 13.865106579158097 24.589023619285 0 0 0
591 4 -0.358704792784829 10.245232850253453 12.140773885395603 24.5310988442726 0 0 0
592 4 -0.3412933232898178 8.877791647496839 10.391238193664876 25.283957615887143 0 0 0
594 1 0.005082217025152866 10.298829123303278 12.161722741845916 26.068584466959933 0 0 0
595 1 -0.03030266587198931 9.033907297681537 11.418889399307991 26.42320135859769 0 0 0
596 1 0.4400961109980199 9.486593430530876 11.017342534292522 24.207851754502673 0 0 0
597 2 0.06895173677740876 10.371678584404732 13.133719397125853 26.516190988875668 0 0 0
599 2 0.1121539725534859 9.039806491335487 10.921452197476807 27.40604668604392 0 0 0
600 2 0.1244684353278978 8.16965765406422 12.080857867076489 26.451689558547713 0 0 0
568 2 0.06399984981038048 6.5212386560566005 12.80670794661201 25.037277201806237 0 0 0
598 2 0.06075852736167023 11.195308809314694 11.636874554846276 26.390981717420424 0 0 0
570 2 0.05015458073264799 7.927456187785046 15.227430493364121 23.784823901589345 0 0 0
262 4 -0.3486730032672155 22.424022429392995 8.879281685630179 31.73963305993409 0 0 0
264 1 -0.007125543424984476 24.630130334886843 9.216814161124763 30.861103799952627 0 0 0
268 2 0.0604663164637409 25.70025818321605 9.047177202512376 30.879423205953163 0 0 0
408 2 0.1195322939801945 25.508765853770914 11.41834876019251 27.904973860990044 0 0 0
270 2 0.05469370173271032 24.099431081463344 8.971498069219392 33.02344647213248 0 0 0
619 2 0.05343323781367718 24.837660924732283 9.810354279604804 23.908345578421656 0 0 0
267 2 0.06830210420869935 24.374374968477415 10.269248462966663 30.76626784187091 0 0 0
614 1 -0.002270508255998047 26.31790127600351 10.908812628700161 25.056418893337916 0 0 0
611 4 -0.3127454026230247 26.16923020245134 12.378614876251913 25.555819062147002 0 0 0
409 2 0.09821361455286906 24.312838275971117 13.45955845088574 28.2478775516071 0 0 0
616 1 0.4603272995814053 24.98474213727012 12.88642590482529 25.027559919387368 0 0 0
612 4 -0.3007151579395419 24.28022647376553 11.947987564124977 24.263469822441728 0 0 0
615 1 -0.01436266429171588 24.896122217413527 10.566115154190099 24.67366793686665 0 0 0
620 2 0.09397791628232927 24.307561665957046 10.174343490196033 25.501629001935292 0 0 0
613 4 -0.2857651456593465 24.582826298367983 14.082185280671132 25.305421566222122 0 0 0
405 1 -0.01243533966108316 25.296418399711293 13.344564841404992 28.748809402947273 0 0 0
410 2 0.06640097174728765 25.23638607885055 13.79768319619394 29.744917977470987 0 0 0
407 2 0.05399014034563341 25.5179035046993 11.353462753422788 29.629021790422627 0 0 0
404 1 -0.005214339070458437 25.846495261772912 11.92682114971783 28.792456705831185 0 0 0
402 4 -0.3000387354667287 26.446172888256626 14.056115926873519 27.99011407558307 0 0 0
403 4 -0.3609413116700171 28.733769059667786 13.669662780337973 27.780834909925925 0 0 0
13 3 0.650299671808833 27.863869283965155 16.231267096273445 24.564625098128953 0 0 0
60 2 0.04779760543829611 31.037639976279827 14.531432926385683 34.37366053512135 0 0 -1
618 2 0.05720350154745357 27.022118138712937 10.913349775487374 24.23043852156981 0 0 0
15 3 0.6432008045281338 32.04607773795582 12.727514418345535 29.108297420129183 0 0 0
406 1 0.4666516774494462 27.57035915748106 13.262321238398448 28.134289706216283 0 0 0
401 4 -0.3301243133993491 27.357649552783087 12.017485661041345 28.74946607692512 0 0 0
617 2 0.06420457139182428 26.709042430706965 10.212260837792513 25.787040641781147 0 0 0
31 3 0.5442183346065983 1.595763477834177 20.830143644884124 7.077035883437209 0 0 0
471 4 -0.4564272051322847 1.637776359196004 18.574769113122443 8.196280180552419 0 0 0
473 4 -0.3341468020785978 3.8387296192768092 19.44906413389252 7.540177710361857 0 0 0
476 1 0.362184492567764 3.0907756610471195 18.610655160562967 8.315642905295586 0 0 0
478 2 0.05217549859328122 2.070098981938473 26.017633502463216 9.750965275449886 0 0 0
475 1 -0.1262453875737258 2.3894197122316614 25.965314162106104 7.673452692087422 0 0 0
479 2 0.02661254392503656 2.9653490614898375 25.058979381719585 7.647236859309775 0 0 0
472 4 -0.4441658625547157 3.738344779808891 17.477427740550475 8.813643304607602 0 0 0
500 2 0.0853876689016754 9.494989896850852 20.39136529177245 0.7534346627528095 0 0 1