LAMMPS data file via write_data, version 22 Jul 2025, timestep = 25000, units = real

640 atoms
4 atom types

-0.3766799772921985 32.40368197729249 xlo xhi
0.9883180227078014 33.76867997729222 ylo yhi
1.1573190227077959 33.93768097729223 zlo zhi

Masses

1 12.0107
2 1.00794
3 126.904472
4 15.9994

Atoms # charge

2 3 0.6189132940552277 1.0821801535060995 7.665641294128555 9.663788692174387 0 0 0
121 4 -0.3431117316737566 4.508515995764429 8.799025637373813 9.366630392412304 0 0 0
124 1 0.01615706029042967 6.001080832248222 8.987823127395018 8.877805305664523 0 0 0
5 3 0.6580769487155206 9.991715311895746 1.7886068926931111 11.362833409448998 0 0 0
101 4 -0.3559679729937584 11.323483245845328 6.386160523257036 7.185640627153694 0 0 0
104 1 0.03511123847382189 10.041513863427237 7.236366665717803 7.005247901930208 0 0 0
105 1 -0.01377834923130627 10.475363972020855 8.674368141115774 7.2105977650914514 0 0 0
106 1 0.4887006922753129 12.377415610531338 7.249447412781803 6.98463416376626 0 0 0
107 2 0.005885663495037302 9.242970857853289 6.913939151037022 7.6418270118244385 0 0 0
108 2 0.04327114765738098 9.63269364647664 7.039741050569339 5.988133518811066 0 0 0
110 2 0.09792630918993318 10.380390072051718 9.012160229847424 8.248198978883234 0 0 0
301 4 -0.5293070366933706 11.563320324775722 2.5460890445049555 11.038233185231281 0 0 0
127 2 0.02408715244964249 6.323741065268971 8.149789404182172 8.280168800759142 0 0 0
7 3 0.5943673551436686 11.671176277528758 4.038773543660215 2.579391804944756 0 0 1
102 4 -0.2868195406728686 12.00993655303282 8.586906308818584 6.89525425223071 0 0 0
83 4 -0.2989704446284334 11.538470986515824 8.227349659082932 2.004345957992613 0 0 1
608 2 -0.003494144648902478 8.477282944823873 1.6760288116450432 3.1863339938123003 0 1 0
609 2 0.06420231873362203 6.1803534522469326 1.3533954609517276 3.8989603110633437 0 1 0
128 2 0.02806329573021318 6.622495603038113 9.019294471852309 9.768183618896012 0 0 0
383 4 -0.4568660281390601 12.707654971158833 1.4724573683587938 1.7459412424295433 0 0 1
413 4 -0.3512399290456104 11.567146454046622 8.800287158269324 11.316234271596787 0 0 0
103 4 -0.297485218960748 13.624170490497098 6.924600184749309 6.899973860602031 0 0 0
27 3 0.5749011813524634 13.759211960676929 4.28678927539549 10.361585461234025 0 0 0
412 4 -0.2917384373781394 13.313982102178388 9.13873798613263 9.732222641461291 0 0 0
399 2 0.04877329294518198 23.573301878523896 6.022239175996065 1.593848673278168 0 0 1
398 2 0.07039235228046321 24.47591593334558 4.657363125207032 3.3733203398692613 0 0 1
393 4 -0.2787526414104162 21.76344026114219 2.0688019422055772 2.044960325949048 0 0 1
391 4 -0.3005098381068112 23.967586840410984 2.8315896962473754 2.400371012815148 0 0 1
394 1 -0.005610855203702886 24.561604840303524 4.248971349846183 2.3696792694527486 0 0 1
396 1 0.4775180378598632 22.660118733962943 2.977231071977127 1.9306505911694938 0 0 1
397 2 0.04304767816887131 25.617358413318236 4.253877777698687 2.0986433523306904 0 0 1
392 4 -0.2975373628952817 22.347185692240316 4.202260411039438 1.337228595370779 0 0 1
395 1 0.00381622956811932 23.679847650670318 4.962373692349704 1.3492170076492684 0 0 1
556 1 0.4462615590942178 25.63437173388567 5.065503235396407 11.645787165684768 0 0 0
243 4 -0.3916028983721957 32.28460739556018 6.669186547437788 8.587873453258556 0 0 0
551 4 -0.3284163947406897 25.899350087807694 5.247223279584586 10.295574998227739 0 0 0
560 2 0.1079216072390184 26.006202042522524 7.911614232182497 11.36589934407173 0 0 0
640 2 0.07770033321684605 30.39994416789365 7.912509901269643 11.716735855744048 0 0 0
555 1 -0.02248683555809553 26.73539615386482 7.124391391812158 11.533792747246737 0 0 0
246 1 0.3554220292389492 31.40785072573187 7.750230487157158 8.082204485927651 0 0 0
6 3 0.6227500124226842 27.905482439067526 1.5450006112554953 10.456154323101758 0 0 0
241 4 -0.317855918216042 30.209649198124584 8.160257417623317 8.779017197849447 0 0 0
557 2 0.07521872451082164 26.934878652731044 6.922945171401385 9.376074854050932 0 0 0
554 1 -0.0045729818150443 27.00794828457712 6.345187311240304 10.264262426111076 0 0 0
558 2 0.03389997817628874 27.96489604299076 5.834486151320134 10.269998087417402 0 0 0
242 4 -0.2989781981647794 31.695734962371986 8.3835921836889 6.77361470644192 0 0 0
639 2 -0.001481691774189664 31.619464139132624 6.6557097942050065 11.61982434921341 0 0 0
559 2 0.08552384701315115 27.612136381319377 7.577049579276716 11.969063053000724 0 0 0
368 2 0.07832039841487874 1.5871727116627188 13.462488887637125 8.617012313104194 0 0 0
364 1 -0.109300129529255 2.158196396812536 13.127287015080631 7.770860302329586 0 0 0
365 1 -0.1309108409725963 2.956602057227568 13.966067123922658 7.125713052077714 0 0 0
367 2 0.1000491692930644 2.0508449060633263 12.118121995163834 7.387700942709697 0 0 0
369 2 0.1035841107708598 3.0877454929641748 15.00600721008642 7.414461168027065 0 0 0
370 2 0.117063316052465 3.4924324810082394 13.649632655522286 6.2461585048084185 0 0 0
123 4 -0.3598636577191811 2.7947164268293 10.346915600730146 9.766719845152776 0 0 0
126 1 0.4550616382894351 4.009793404258274 10.077570530106714 9.38469947311835 0 0 0
122 4 -0.3215763750457896 4.865676656166023 11.064145407052012 8.925500227761423 0 0 0
471 4 -0.2721013063610522 3.9661616036696117 15.825747453800222 3.1031417169029156 0 0 0
476 1 0.3898436842385621 3.474596676573866 17.028946848135643 2.9320854364577036 0 0 0
125 1 0.001506409113534682 5.964309601487461 10.30998286129275 8.15188935988989 0 0 0
130 2 0.06400247710811104 5.626223420092692 10.185273386857208 7.135720723628864 0 0 0
109 2 0.04890256301679554 9.96715255980041 9.40322054613994 6.592248317329223 0 0 0
118 2 0.07383697054247468 9.684267198001336 14.702013562370547 10.159068495811276 0 0 0
417 2 0.006509211450301144 12.197537934908938 12.294310785238354 8.833385734762167 0 0 0
418 2 0.0493807882745628 11.830054129783486 11.035776225304627 7.757708816864396 0 0 0
129 2 0.04025691691077375 6.928353745673675 10.827650799860018 8.110395342208614 0 0 0
414 1 0.03329338661964967 12.156037996185182 11.207168376014545 8.784695210737137 0 0 0
416 1 0.4389488573562442 12.017997705867298 9.464816961670682 10.281683008934193 0 0 0
411 4 -0.3307004064199074 11.264595599446212 10.547508834052447 9.75382292522574 0 0 0
115 1 -0.09197412904292321 9.012897216719601 15.980557524455316 11.681923338840956 0 0 0
114 1 -0.1199446128343751 9.711010846637459 15.697888864947641 10.57629573837055 0 0 0
117 2 0.0345085365205717 10.363623565508073 16.430369233142915 10.087004363393856 0 0 0
419 2 0.08713856781084234 14.231154060182048 10.395454113836387 8.291525637513093 0 0 0
415 1 0.01124379843942924 13.509155354752396 10.484165197084154 9.159648597088871 0 0 0
420 2 0.05752405184220336 14.168775539599551 11.077066062070493 9.886399204755298 0 0 0
421 4 -0.3563177441872137 14.125730676793195 10.52565662910003 3.554388252753362 0 0 0
422 4 -0.2409076997038134 16.298808322212082 9.902660550474017 3.0846133028807707 0 0 0
426 1 0.4221851586716174 15.41483912894459 10.868490990225064 3.05436584700241 0 0 0
423 4 -0.3637024874254402 15.6096995267097 12.047938343630976 2.3670358731435863 0 0 0
8 3 0.5691235038373704 13.52345060989398 12.549390363376448 3.7409667650829097 0 0 0
60 2 0.0485503834942522 24.386006150265974 14.612792983458462 1.57196852900406 0 0 0
250 2 0.02398007802234302 31.279217062432092 10.421074332660769 7.005767428753772 0 0 0
249 2 0.04383418775702011 30.238817918012078 9.578153763637347 5.868506373107481 0 0 0
247 2 0.02480596088471193 29.629311457193502 10.235696856997833 8.607752513655756 0 0 0
248 2 0.05057332543920545 28.653743216101528 9.225816230916 7.6964635465871085 0 0 0
244 1 0.01504274701471134 29.68744171504731 9.348954441224913 8.01407183297112 0 0 0
245 1 0.03104606706170863 30.737990546006078 9.491887756036569 6.844522261232883 0 0 0
151 4 -0.4207918412437583 6.000979729856163 4.413664032912769 16.431594335006963 0 0 0
156 1 0.393165265634619 5.777170079773147 5.4587464283893645 15.444616018637936 0 0 0
338 2 -0.02321012550276304 5.876535012213284 8.644616750042927 22.629553660811943 0 0 0
153 4 -0.2620998112222878 4.646787014541947 5.554852641009909 14.787019517657015 0 0 0
154 1 -0.1213752443994824 3.0293879754190756 9.12187235811077 16.875307744021175 0 0 0
157 2 0.1260575129865315 2.271441540816082 8.601572146929932 16.302764576146913 0 0 0
337 2 0.005836073080273091 5.878846792509823 6.890403725266005 22.478643062702215 0 0 0
160 2 0.1536875755813028 4.590419658420316 8.902886410947122 15.443984739227243 0 0 0
340 2 0.05273901274899526 3.500881142262213 7.098792191845904 22.69086043489314 0 0 0
303 4 -0.3693598064993492 11.060868927355969 2.6905129892929653 13.330297120562873 0 0 0
10 3 0.6182487443352668 7.8417183453693795 4.872458489310974 16.715693000583066 0 0 0
152 4 -0.3654048860767795 6.683112090064193 6.53884033697018 15.411513368378078 0 0 0
28 3 0.6162996327576711 8.523124714194845 8.524450655371707 12.462068879489495 0 0 0
133 4 -0.3536825061901698 11.192716116921373 8.415936368747587 19.231908577557892 0 0 0
26 3 0.5792210196656137 9.003668010528765 8.298483465624091 22.46116112050049 0 0 0
132 4 -0.3584328024531092 8.967736482449604 7.957780510939695 18.76145983317163 0 0 0
136 1 0.4744295166223079 10.020940261507167 8.826453243528828 18.787954284429492 0 0 0
140 2 0.1052155909173229 7.264504877831398 8.266285876969901 17.32401938553606 0 0 0
139 2 0.0276549236050154 6.817360716500902 8.661217794365301 18.983877286514925 0 0 0
135 1 -0.01889139727334978 7.614013707603231 8.731363475027287 18.23519220309099 0 0 0
306 1 0.3806029706309561 12.041378422229041 2.806889901936993 12.334860274978102 0 0 0
302 4 -0.3541001867916097 13.34081372569536 3.2296647157428486 12.592404752326747 0 0 0
588 2 0.06221635702799519 17.847252568042133 7.083053455842232 17.11517141000296 0 0 0
587 2 0.05644904423886454 17.26624147071783 8.012750697125966 15.749902899815307 0 0 0
584 1 0.01075429886706047 17.629543147240497 8.097531530713976 16.77253039760319 0 0 0
581 4 -0.3366705501875051 16.48019464495553 8.70980482583305 17.6496100648762 0 0 0
585 1 -0.06181378197748914 18.81734373876943 9.013846495417392 16.874784695087463 0 0 0
620 2 0.06341887382488043 15.890338271032991 7.218784182613842 22.70037395508296 0 0 0
589 2 0.1036152752820689 19.631503254555057 8.632718400717424 17.503800042344942 0 0 0
69 2 0.07189487501233141 21.071581707700414 7.137073443757455 15.584722391852862 0 0 0
70 2 0.1036647906542743 22.326983433964372 8.042745874165263 16.40585520703491 0 0 0
523 4 -0.3085865824954658 23.19880477802896 5.281207898084734 17.859965941803097 0 0 0
65 1 -0.02280787779361283 21.906148254527675 7.794424452317183 15.421102994040222 0 0 0
522 4 -0.335680139883285 21.62921154166312 6.961148940183803 18.293278108174103 0 0 0
526 1 0.4567796404591738 22.793775020423066 6.260272009249164 18.598128009026034 0 0 0
62 4 -0.3204600211545927 21.468564738794175 9.079236292370286 14.727372290456648 0 0 0
521 4 -0.3095907898600936 23.524597763404 6.74654138315896 19.67211080739703 0 0 0
524 1 -0.03019091600956581 22.652571545111254 7.876612842932659 20.2902862785871 0 0 0
527 2 0.1233746124786184 23.30442186930789 8.672631681214593 20.61114844066113 0 0 0
528 2 0.06623521744872292 22.173391249505773 7.529657825155609 21.18913249481958 0 0 0
525 1 -0.006098445551651083 21.67772199785056 8.224494589304143 19.18470768205369 0 0 0
68 2 0.1090926375676555 22.581712517746666 6.615347320563983 13.730092629290455 0 0 0
67 2 0.09262034042041935 23.74646746307692 6.624401228403918 15.002300272599753 0 0 0
61 4 -0.3077956547370485 23.59386845739658 8.52796262442276 13.903510270595254 0 0 0
64 1 -0.02763411859271107 22.989660331478852 7.230993499957173 14.516684203676187 0 0 0
47 2 0.1468727051218106 25.480899639021523 5.843346034879519 16.712351162963913 0 0 0
530 2 0.0664151702050535 22.04362615637231 9.069158570579054 18.5885552814877 0 0 0
529 2 0.06165084225011425 20.69481082625146 8.48945698763588 19.54157477812024 0 0 0
553 4 -0.3193021423838033 24.961688127267305 4.059923769911991 12.09261702108745 0 0 0
48 2 0.1745750596011878 26.142196308423156 6.352257076549566 15.076200412640695 0 0 0
44 1 -0.186147614058746 26.010305479234745 6.560849445578484 16.103669126086157 0 0 0
633 4 -0.2942160973311572 30.642586797882615 8.29603470280638 15.676114374492286 0 0 0
552 4 -0.3138037858424393 26.149000151198386 6.05510446566494 12.487912748837484 0 0 0
638 2 0.05485750234676981 30.480288017034376 5.321574925952782 13.313630819413905 0 0 0
637 2 0.04237426865267632 29.09558373034092 5.93347785606948 12.338227224450359 0 0 0
634 1 0.005307552713292696 29.94992298614495 6.207620725003546 12.962571082829708 0 0 0
631 4 -0.309646822358899 29.463871709267444 6.864908142952819 14.256606004574834 0 0 0
635 1 0.003668183538151945 30.913082529081155 7.158323952452706 12.280497999913418 0 0 0
636 1 0.4757819959479087 30.562358247073668 7.671510715156011 14.556836077954152 0 0 0
632 4 -0.3177773425895871 31.524873522590177 7.773123322511503 13.558978019599833 0 0 0
49 2 0.1016483781250144 27.12605190950384 8.411541993573323 16.049389194164114 0 0 0
45 1 -0.09930533989046646 26.6788064726205 7.601102892387541 16.618198277009974 0 0 0
50 2 0.06704664297549615 26.779671654757827 7.741851902705632 17.67860707746503 0 0 0
239 2 0.04446788954333382 26.69329426752217 8.994181858006185 19.07961782931066 0 0 0
155 1 -0.1397702517149714 4.250109667802888 9.300899450652901 16.390374993330525 0 0 0
159 2 0.08200117117659464 5.01121244935778 9.857584343948707 16.922369529376365 0 0 0
158 2 0.06228016921417612 2.7877162028405253 9.457673034964882 17.868894199041144 0 0 0
33 3 0.640473830650808 5.559969562341858 12.216959496943197 13.423029103877576 0 0 0
362 4 -0.3829777753655176 6.13054245548449 9.862726784904577 12.646308222089116 0 0 0
597 2 -0.009780276018959734 9.608506246001548 13.904983437802894 21.56181319646399 0 0 0
366 1 0.3476692523566247 6.795918897213202 10.286509985591099 13.858562459268004 0 0 0
596 1 0.4397462798258051 10.455835798917134 11.319434304575067 21.75834056646989 0 0 0
591 4 -0.3722214814721582 11.01308100424814 12.349488586104043 21.061485337393336 0 0 0
570 2 0.02680641213080871 7.985554667183978 15.80321806756895 21.078496054613556 0 0 0
17 3 0.5416995493613813 9.586195103417573 14.739473035388015 18.571515238382347 0 0 0
131 4 -0.3434468529197746 9.785410526353138 10.087577473882526 18.281898361285396 0 0 0
134 1 -0.006849532003248386 8.174653952978083 10.099038890854729 18.04963751078518 0 0 0
137 2 0.1010684780643119 8.101908955296716 10.456768836971262 17.024255304861434 0 0 0
138 2 0.0322148314923492 7.86310567039253 10.902070813130209 18.70791673312002 0 0 0
361 4 -0.369419647937354 7.846528304179419 9.521658787040808 14.311688966554286 0 0 0
569 2 0.09607698547770606 9.121473178318709 17.11180426051535 20.74084353239223 0 0 0
593 4 -0.3707160040763667 10.425195996647025 10.107448184449016 21.18222503812338 0 0 0
565 1 -0.01635056159474474 8.27063403764391 16.826780249469834 21.345001160228367 0 0 0
594 1 0.03631599689700651 10.595374994723171 13.580897579557504 21.9484569453565 0 0 0
592 4 -0.3515576680869302 9.950048211240297 11.613933597181976 22.982387566048217 0 0 0
119 2 0.01680827641073815 8.49052549195609 15.244737567434969 12.245208409941496 0 0 0
598 2 -0.003898573116306814 11.28870626392894 14.403155988458236 21.79005203088845 0 0 0
363 4 -0.4942609625861372 6.4173367640914 11.427281844571796 14.605718074044066 0 0 0
564 1 0.020099324534351 8.360800761194803 17.145350713931023 22.802385721700695 0 0 0
120 2 0.0004036777911425454 9.018314325297535 16.97899696324042 12.145870084533179 0 0 0
12 3 0.5971758915617125 13.273009446711614 10.488801696361223 18.64920191545249 0 0 0
583 4 -0.3896982207316825 16.08343796023511 10.893751243999544 18.505157695009434 0 0 0
586 1 0.4605633768428987 16.87321353558751 9.985212955468016 17.945050412966246 0 0 0
582 4 -0.3125970106598811 18.149419898539474 10.305901061730431 17.612344376506446 0 0 0
9 3 0.5458883191995239 19.019890619006727 15.433192812620934 20.40742072238929 0 0 0
590 2 0.1392328500253212 19.232430770260933 9.343100988132667 15.937331211301439 0 0 0
66 1 0.4653082458844256 22.588893809209 9.473734724031964 13.980163103372679 0 0 0
238 2 0.09259416443591911 25.486808879807725 10.737943558685899 17.85490450763298 0 0 0
231 4 -0.2909132424496351 25.694037166755976 12.16580221367067 19.460843416777486 0 0 0
236 1 0.4713740446510874 25.084019116170296 11.417115893954618 20.463097183164198 0 0 0
63 4 -0.2818032602386931 22.666060977814947 10.62161906876798 13.40572921496444 0 0 0
42 4 -0.4720520705543244 21.47614522086094 15.673142909572965 21.430127614969688 0 0 0
25 3 0.675160050562741 23.168698246797362 15.500054329863431 22.40913302312798 0 0 0
46 1 0.365843229110978 21.269834894039334 16.99359094462322 22.060791741331183 0 0 0
233 4 -0.2898136798863287 24.091361479337692 11.876875926453375 21.142066348303466 0 0 0
232 4 -0.306962489356879 25.58505509225423 10.127149643604085 20.608223710348277 0 0 0
235 1 -0.0002170483831906572 26.66472951587833 9.98238551607055 19.49663821918326 0 0 0
240 2 0.06145263979395786 27.628054503531597 10.178521260401357 19.937671162647632 0 0 0
234 1 -0.02506374726139578 26.27168892194089 11.069584532448163 18.528233197789092 0 0 0
441 4 -0.4994511743146668 26.944270059731224 17.03055086497902 19.599062017684982 0 0 0
442 4 -0.3444386719175537 26.897389643224507 14.760982914155374 18.582580370898583 0 0 0
446 1 0.3461092381644454 26.53005498847976 16.08880540364558 18.514202413935525 0 0 0
237 2 0.08457466812236177 27.07126939870465 11.461368853289212 17.90452730762998 0 0 0
13 3 0.6046820847843589 28.085603808296987 15.591739259342525 20.291606776936366 0 0 0
443 4 -0.3451351199558035 26.085777435934794 16.627563269493983 17.347391790740435 0 0 0
16 3 0.6121412409596765 3.1240461164010367 5.9034013835724455 28.535501922902164 0 1 0
251 4 -0.3266204356302624 3.6929296877195963 5.193396009421596 30.86298496137193 0 1 0
256 1 0.3407630592345796 2.6654037515926325 4.265988249547846 31.03267659445344 0 1 0
252 4 -0.4716873369046662 2.314450388252514 3.3283932156550438 29.988012802390468 0 1 0
35 3 0.5998909325749409 1.5297815247674964 2.2033058133008785 31.446741276556885 0 0 0
332 4 -0.3347656761527758 3.9807830855270456 7.15043107282814 24.917192037002113 0 0 0
336 1 0.4679525961596085 5.266305618694214 7.087270000594952 25.39929343511413 0 0 0
333 4 -0.3452504053035351 5.531572500159812 6.683383379836235 26.608183944022215 0 0 0
253 4 -0.367158020419549 2.309590733515473 4.046768184828959 32.347104849008176 0 1 0
335 1 2.786484344317885e-05 4.08378255633018 7.690505380039421 23.405561046466183 0 0 0
339 2 0.05402318777716586 3.677668791357032 8.684266923241815 23.382131621919562 0 0 0
334 1 0.02695433218801358 5.5469795113212355 7.7119724269033165 23.09868051891265 0 0 0
429 2 0.1235461757272177 4.95124771088327 8.252396696363439 31.35921352586878 0 0 -1
430 2 0.09763618471802282 5.727996329678609 8.965994505920726 32.8675233824593 0 0 -1
542 4 -0.3090775865708282 1.3669441666940605 9.014081514927412 30.180364350873198 0 0 0
425 1 -0.1229677667464678 5.244202921632286 9.117359202733603 31.90670642692645 0 0 -1
81 4 -0.3100995597637444 12.702065190287168 7.215887415884618 33.012060057927 0 0 0
86 1 0.4804742295452002 12.119629192858012 8.315281684755199 33.64290712098187 0 0 0
386 1 0.3162512603891411 12.099840324170033 2.0150633884648514 33.2972736337807 0 0 0
331 4 -0.3487758874340093 6.250344021205633 7.455121526169545 24.5063579967871 0 0 0
90 2 0.06979239931687026 12.200647595477704 9.076320175298685 30.820676530427686 0 0 0
382 4 -0.3607302586583055 11.538452686120232 3.2848191191214036 33.258266532061505 0 0 0
381 4 -0.360199847348387 12.359714807293841 1.3566494063972325 32.0850404451517 0 0 0
85 1 0.001536488897320859 12.924515791984692 9.159411901694538 31.655091027856205 0 0 0
84 1 -0.02588577696301142 13.563275947990038 7.797375758057844 31.870140444648754 0 0 0
87 2 0.08819657093951737 13.502344745265313 7.144540839684196 30.984688577038334 0 0 0
88 2 0.1003767724821139 14.606542050860241 7.869397789157874 32.171406644904124 0 0 0
617 2 0.06335510342862447 18.217720751551024 7.300187191657793 23.74813067181344 0 0 0
614 1 0.0130931068406068 17.597430925908352 8.189127232942063 23.849950568403006 0 0 0
615 1 -0.007535858112215174 16.148125564936922 7.878992698459279 23.527475970037603 0 0 0
612 4 -0.3022219126799922 15.65794602912872 7.302044336316296 24.867482369663897 0 0 0
619 2 0.06912851440898438 15.620199396761297 8.80142956019252 23.370459706659794 0 0 0
616 1 0.4759343778805331 16.46062049057495 7.922490238531393 25.82602061687431 0 0 0
611 4 -0.3286950788668896 17.601287396551083 8.559512146651883 25.342829454279126 0 0 0
613 4 -0.2942738972755063 16.13393873960908 7.886358926473546 27.06855103524048 0 0 0
618 2 0.02219158020258946 18.01336672736336 8.930644642726765 23.186816098107204 0 0 0
400 2 0.06891385932864286 24.096460235058537 4.986421889788144 33.106818339429154 0 0 0
22 3 0.5769875864930765 24.492537386772455 3.6472166265299237 26.30399000762676 0 1 0
202 4 -0.3348245322612288 24.099761355857993 6.676453392411688 24.93380602702134 0 0 0
203 4 -0.4464486880964367 24.10711582340405 5.302885660920118 27.004455083278774 0 0 0
205 1 -0.01342999057464069 25.250999617524787 7.4248747652798714 24.271205844576805 0 0 0
206 1 0.3129017152890586 24.7996530655919 6.051626199757428 25.997661071519968 0 0 0
269 2 0.0918146827521216 24.29480216520583 7.879249858165076 28.012251745235005 0 0 0
265 1 -0.03040688313780412 24.687424074323662 8.305326625869917 28.925820654125726 0 0 0
270 2 0.1042910950634119 24.800705352712264 7.48269185784339 29.62319933557623 0 0 0
209 2 0.1032872520935177 24.958741560603816 8.201257287790629 23.577349304402645 0 0 0
210 2 0.0573462899619543 25.807860635973775 6.705429596040602 23.67750871354992 0 0 0
208 2 0.06390679366245072 25.478492656493245 8.727310717372172 26.059240303285236 0 0 0
264 1 -0.01078039010737361 25.983832115856806 9.058019496449294 28.77671561496419 0 0 0
267 2 0.08313757105595215 26.84797482348742 8.414032437464225 28.744814998749824 0 0 0
201 4 -0.3280032915887742 26.006790041886394 6.697595538409131 26.349257175345304 0 0 0
204 1 0.008475085902630186 25.989459117216008 7.944689283993317 25.474593880547275 0 0 0
207 2 0.06990650786120084 26.991713501577642 8.282075473436244 25.304863516774876 0 0 0
409 2 0.09550483474100882 31.208673775832295 9.1401384628282 28.79076847777596 0 0 0
427 2 0.1076964744719371 5.73630896735037 11.220979556159197 31.86893857674974 0 0 -1
428 2 0.09475299924968121 5.199278121979321 10.47803524007892 30.279515942257646 0 0 -1
15 3 0.6027613073830478 -0.02471097131417027 11.368091072296242 32.84338385360398 1 0 0
546 1 0.4204445953775692 1.1351958022470428 9.95386257234645 31.056197700209136 0 0 0
541 4 -0.3577784108813802 1.9603951965625424 10.08543679948235 32.1809370259123 0 0 0
424 1 -0.121208330496086 5.332190706766077 10.333683756339493 31.34470584104991 0 0 -1
408 2 0.06529336700469925 -0.17450881273260824 9.347690709542638 26.66476956136147 1 0 0
543 4 -0.4391536840303617 0.01239731530828131 10.84946714119546 31.010919535384872 0 0 0
320 2 0.116487901984522 6.752587523200911 11.589996320627272 27.153186247340365 0 0 0
82 4 -0.3019190558747571 12.198487994217674 9.530741327943842 32.96913769108235 0 0 0
317 2 0.06645219813265242 6.497880335588333 11.083578016177473 24.734892374563422 0 0 0
318 2 0.06547548490296255 8.26655629275879 10.594637169912792 24.632462908141186 0 0 0
319 2 0.1411508865109505 8.56028084078757 11.307050226002762 27.058641667670845 0 0 0
314 1 -0.09524474447435818 7.444105560934077 10.932002519533855 25.260209500229962 0 0 0
315 1 -0.1498009039632837 7.588311768589681 11.262856470253492 26.55433392709013 0 0 0
595 1 -0.0141434245192488 10.52791409006188 13.073589211764892 23.34928854980903 0 0 0
221 4 -0.3145215345510393 10.86929956666004 13.288723602916756 28.920466833309757 0 0 0
222 4 -0.2938405984931551 9.868451322114252 13.553388493384055 31.017465834166856 0 0 0
223 4 -0.3092539598618967 8.618127401654034 12.678352867203156 29.219836243453035 0 0 0
224 1 0.006534999039117945 11.974568671901407 13.63552503951003 29.938402759818143 0 0 0
225 1 -0.02264755636865459 11.159439032087073 14.39803413073995 30.963099530175555 0 0 0
226 1 0.4796338155672439 9.716468002161696 13.141096730515828 29.68859680310598 0 0 0
229 2 0.04839433731879002 11.60909695825574 14.502329765453913 31.930433084794256 0 0 0
230 2 0.141689037138292 10.906074763360126 15.377592060006986 30.612483237201563 0 0 0
600 2 0.07461549060609891 9.852451243589917 13.652421099625323 23.959561155152063 0 0 0
599 2 0.06859089588914613 11.494013875627891 13.039259459487699 23.845605116089573 0 0 0
567 2 0.04987076596371125 8.640521091869807 16.313150315413623 23.43600569749741 0 0 0
228 2 0.06052256098479975 12.4066427710728 12.744243370831178 30.343539263300997 0 0 0
89 2 0.06210544465251573 13.655720793451252 9.922336620117035 31.390653447189973 0 0 0
227 2 0.04793457388493241 12.762092467791229 14.223827579239654 29.505252968110486 0 0 0
384 1 -0.1066712619832734 16.02307368128371 12.563111436302329 28.218402856387026 0 0 0
388 2 0.06060317470150164 17.069010967930485 12.71429476681171 28.35371878574921 0 0 0
387 2 0.05162704552437888 15.410196616245404 13.064581442559774 28.975785833410324 0 0 0
389 2 0.1171667484229606 16.121466427931285 11.075660754869052 26.734116475235748 0 0 0
390 2 0.08890264252553413 14.413654903897463 11.556478997876324 27.238876822194467 0 0 0
385 1 -0.1409879407308358 15.479756914929704 11.672278333057367 27.368637582773804 0 0 0
57 2 0.08706150807337174 25.3570514737881 12.565979808019714 33.4335529517741 0 0 -1
55 1 0.01042749915213942 24.230464218945176 14.472635692140724 33.30156808321908 0 0 -1
262 4 -0.3301654562388788 23.711267742917098 9.3450596905742 29.551018138463142 0 0 0
401 4 -0.3088944414064499 24.58090817369114 12.884154986947301 23.653431150588254 0 0 0
266 1 0.4705107251424066 24.573379637030833 10.182162643407345 30.24685868111197 0 0 0
280 2 0.07548098905430153 22.072337388772077 14.209971640703618 29.859729118077578 0 0 0
277 2 0.07584651679581136 20.608164117831702 14.017103830175662 31.83654904680695 0 0 0
20 3 0.6271852513135828 22.512222459211575 10.26805570775924 25.553702571968277 0 0 0
274 1 -0.129800767864903 21.01817059192962 13.160638462000836 31.36913340519431 0 0 0
263 4 -0.3401857725724108 24.12561941979764 11.136923758028827 30.987488504808237 0 0 0
278 2 0.09369631703411251 20.858295729399124 12.203266397709127 31.857929569642817 0 0 0
275 1 -0.1314415443458296 21.84284054814846 13.260083572702612 30.345131573794905 0 0 0
403 4 -0.4363606679286829 22.527537040913863 11.857558662898636 24.369607770019144 0 0 0
279 2 0.1011485377996025 22.297534439376257 12.380426721859969 29.896897292071237 0 0 0
406 1 0.4134315910065607 23.957788526720663 11.943172313819622 24.328561880757757 0 0 0
402 4 -0.355800929433031 24.700702629372255 10.83529948596074 24.765762514395018 0 0 0
52 4 -0.3043266931595273 24.7849341602831 15.66649314411609 32.49416879677337 0 0 -1
58 2 0.1835274407449745 24.62657103388745 12.902427601952208 31.912754454431912 0 0 -1
54 1 -0.05132774927637022 25.112754786779792 13.36545039888038 32.74798501520536 0 0 -1
59 2 0.04691154718220809 23.194604893348153 14.31974444967684 33.18165629602326 0 0 -1
410 2 0.09804150789431552 30.67220494166929 10.846417399981386 28.526744315851854 0 0 0
268 2 0.07030870105979467 25.962412133205703 9.654856425589262 27.892084796996805 0 0 0
261 4 -0.3050181756696058 25.926321342095246 9.950056050462914 30.05605398869088 0 0 0
51 4 -0.295854839463178 26.42851373004293 13.984937799197695 32.25460943242289 0 0 -1
56 1 0.4824023411072527 26.091197018446724 15.330050586744061 32.13804585295634 0 0 -1
53 4 -0.2830318795659289 26.907281314587433 16.22667736739038 31.71181140753376 0 0 -1
407 2 0.07108693546352229 31.98715472798775 11.069101014092317 26.447926458468235 0 0 0
405 1 -0.1148861636956786 31.29097346473197 10.027667287581826 28.1669456787501 0 0 0
404 1 -0.1069184604028712 31.956891232899316 10.141710555563717 27.01613515503075 0 0 0
31 3 0.6815078552437087 1.8642938996283234 18.86816382980124 2.8182172528792755 0 0 0
473 4 -0.3612728505042651 3.447465868661051 17.62446873265175 1.6287179357332335 0 0 0
292 4 -0.3060144904436355 3.093051486975144 22.265161306840987 4.063319577244331 0 0 0
293 4 -0.2453478618412962 4.624338567069464 22.47318821747911 5.828772158454566 0 0 0
296 1 0.486871195582664 3.9147469222258344 23.00913276159719 4.904261534982881 0 0 0
291 4 -0.3006564092401516 3.947765115135759 24.378473148991432 4.627242355364477 0 0 0
299 2 0.131458455008868 1.7438341700250048 22.991710970447635 2.50469328957191 0 0 0
295 1 -0.04119062885359101 2.718080540776479 23.2459202997256 2.9232551418752877 0 0 0
300 2 0.05553743905705455 3.4905551100327648 23.204680410615193 2.170202933019933 0 0 0
116 1 0.3814109961058948 4.832735458451817 20.965509321196578 9.378884741907736 0 0 0
113 4 -0.3937702391108442 4.633274841200717 19.76744613180208 10.178478825635192 0 0 0
294 1 0.001314388815220086 2.748735447055105 24.549731215699076 3.6946681077488632 0 0 0
112 4 -0.2122315696141692 3.809177340339132 21.45656973472165 8.7239175279564 0 0 0
271 4 -0.3376180170161671 0.32248108032065814 21.260601968571716 2.5509193433787396 1 0 1
298 2 0.08900637238848177 1.8419947422428504 24.64758852448845 4.272558994759121 0 0 0
297 2 0.04452105264403913 2.819837934250559 25.40082506345271 3.048016074545504 0 0 0
472 4 -0.3868501383691695 2.8108994795382545 17.695480275433454 4.036846106763653 0 0 0
111 4 -0.3724048574699876 6.199458237492551 21.542968012004355 9.335989001162497 0 0 0
24 3 0.6074653926836612 6.702909112665909 19.659387275827964 10.056877811134552 0 0 0
196 1 0.460897582649025 11.726474097670586 22.71149755786016 3.5489980550525346 0 0 0