LAMMPS data file. CGCMM style. atom_style charge generated by VMD/TopoTools v1.9 on Thu Feb 19 17:04:28 CET 2026
 640 atoms
 0 bonds
 0 angles
 0 dihedrals
 0 impropers
 4 atom types
 0 bond types
 0 angle types
 0 dihedral types
 0 improper types
 -1.486499 33.513501  xlo xhi
 -0.121501 34.878499  ylo yhi
 0.047500 35.047500  zlo zhi

# Pair Coeffs
#
# 1  C
# 2  H
# 3  Li
# 4  O

 Masses

 1 12.010700 # C
 2 1.007940 # H
 3 126.904472 # Li
 4 15.999400 # O

 Atoms # charge

1 3 0.000000 16.822001 1.435000 30.764999 # Li
2 3 0.000000 0.272000 5.835000 6.321000 # Li
3 3 0.000000 16.389999 20.864000 5.586999 # Li
4 3 0.000000 18.506998 23.230999 31.629997 # Li
5 3 0.000000 7.718999 3.319000 10.646000 # Li
6 3 0.000000 29.540001 1.943000 5.547000 # Li
7 3 0.000000 12.695001 5.676000 34.290001 # Li
8 3 0.000000 17.594999 12.664001 2.756000 # Li
9 3 0.000000 20.653000 14.667999 16.240999 # Li
10 3 0.000000 4.972000 5.954999 14.230999 # Li
11 3 0.000000 14.966000 29.349998 2.823000 # Li
12 3 0.000000 12.824001 12.885001 19.454000 # Li
13 3 0.000000 29.019999 13.678000 25.136999 # Li
14 3 0.000000 22.704000 24.594999 4.990000 # Li
15 3 0.000000 31.864000 13.656999 29.168999 # Li
16 3 0.000000 2.247000 34.676998 30.500998 # Li
17 3 0.000000 12.303001 16.152000 19.148998 # Li
18 3 0.000000 20.188000 20.344997 30.473000 # Li
19 3 0.000000 17.219999 28.226000 25.743999 # Li
20 3 0.000000 16.990000 7.221000 31.514997 # Li
21 3 0.000000 2.606000 19.575998 18.198999 # Li
22 3 0.000000 18.065998 34.011002 27.143999 # Li
23 3 0.000000 26.788000 16.691000 22.311998 # Li
24 3 0.000000 0.018000 18.402000 12.340001 # Li
25 3 0.000000 17.686998 16.523001 21.052999 # Li
26 3 0.000000 6.221001 6.470000 21.294998 # Li
27 3 0.000000 12.656001 1.502000 9.347000 # Li
28 3 0.000000 12.620001 7.079999 14.743000 # Li
29 3 0.000000 1.959000 17.806999 25.575003 # Li
30 3 0.000000 10.115999 22.901999 18.679001 # Li
31 3 0.000000 0.913000 21.767000 1.254000 # Li
32 3 0.000000 2.996000 23.592999 32.797001 # Li
33 3 0.000000 2.443000 11.181999 15.244000 # Li
34 3 0.000000 26.502001 20.709999 2.206000 # Li
35 3 0.000000 1.085000 0.080000 32.285000 # Li
36 3 0.000000 10.934000 30.135998 28.102999 # Li
37 3 0.000000 27.034998 24.679001 17.883999 # Li
38 3 0.000000 20.938999 27.235998 6.505000 # Li
39 3 0.000000 1.174000 27.542997 14.905999 # Li
40 3 0.000000 14.235000 26.229002 3.955000 # Li
41 4 0.000000 23.914000 16.219999 18.311998 # O
42 4 0.000000 21.823999 15.391000 18.419001 # O
43 4 0.000000 22.131998 17.665001 18.360998 # O
44 1 0.000000 24.008001 14.821000 18.091999 # C
45 1 0.000000 22.716000 14.310000 18.645000 # C
46 1 0.000000 22.582001 16.528999 18.364000 # C
47 2 0.000000 24.879002 14.401000 18.601000 # H
48 2 0.000000 24.100002 14.645000 17.014999 # H
49 2 0.000000 22.370001 13.404999 18.139000 # H
50 2 0.000000 22.767000 14.122000 19.722998 # H
51 4 0.000000 31.872000 11.704999 2.467000 # O
52 4 0.000000 29.625000 11.835000 2.538000 # O
53 4 0.000000 30.864000 13.765999 2.479000 # O
54 1 0.000000 31.369999 10.393999 2.253000 # C
55 1 0.000000 29.974998 10.481000 2.784000 # C
56 1 0.000000 30.792997 12.547001 2.494000 # C
57 2 0.000000 31.974998 9.652000 2.779000 # H
58 2 0.000000 31.396000 10.184000 1.178000 # H
59 2 0.000000 29.286999 9.801000 2.274000 # H
60 2 0.000000 29.925999 10.300000 3.863000 # H
61 4 0.000000 21.898001 6.932000 16.778999 # O
62 4 0.000000 22.125999 9.160000 16.549999 # O
63 4 0.000000 23.997000 7.860000 16.827999 # O
64 1 0.000000 20.632999 7.443000 16.385000 # C
65 1 0.000000 20.740999 8.895000 16.725000 # C
66 1 0.000000 22.784000 7.974000 16.728001 # C
67 2 0.000000 19.823999 6.943999 16.924000 # H
68 2 0.000000 20.509998 7.273000 15.310000 # H
69 2 0.000000 20.136999 9.527000 16.068001 # H
70 2 0.000000 20.476997 9.102000 17.767000 # H
71 4 0.000000 11.843000 17.523998 32.363998 # O
72 4 0.000000 10.820999 15.649000 31.650999 # O
73 4 0.000000 13.105000 15.672000 31.872000 # O
74 1 0.000000 10.448000 17.709999 32.551998 # C
75 1 0.000000 9.849000 16.684999 31.643997 # C
76 1 0.000000 12.022001 16.231001 31.954998 # C
77 2 0.000000 10.150000 18.729000 32.291000 # H
78 2 0.000000 10.212000 17.524998 33.605999 # H
79 2 0.000000 8.884000 16.316999 32.001999 # H
80 2 0.000000 9.737000 17.048000 30.616999 # H
81 4 0.000000 8.598000 8.092000 31.882000 # O
82 4 0.000000 7.770000 6.056001 32.367001 # O
83 4 0.000000 8.847000 7.250999 34.002998 # O
84 1 0.000000 7.789000 7.697000 30.784000 # C
85 1 0.000000 7.693000 6.215000 30.956999 # C
86 1 0.000000 8.442000 7.143000 32.855000 # C
87 2 0.000000 8.252000 7.980999 29.834999 # H
88 2 0.000000 6.816999 8.194000 30.872997 # H
89 2 0.000000 6.757000 5.806000 30.569000 # H
90 2 0.000000 8.535000 5.684999 30.500998 # H
91 4 0.000000 12.213001 24.601002 7.645000 # O
92 4 0.000000 10.332000 23.767000 6.732000 # O
93 4 0.000000 11.013000 25.884003 6.168001 # O
94 1 0.000000 12.166000 23.219999 7.971000 # C
95 1 0.000000 10.725000 22.878000 7.767000 # C
96 1 0.000000 11.171000 24.845001 6.791000 # C
97 2 0.000000 12.498001 23.049000 8.998000 # H
98 2 0.000000 12.826001 22.679001 7.283999 # H
99 2 0.000000 10.578000 21.836998 7.466000 # H
100 2 0.000000 10.115999 23.085999 8.653000 # H
101 4 0.000000 8.635000 3.809000 4.975999 # O
102 4 0.000000 9.853999 5.621000 5.524000 # O
103 4 0.000000 10.918999 3.628000 5.122000 # O
104 1 0.000000 7.763999 4.929000 4.928000 # C
105 1 0.000000 8.490000 5.951000 5.743000 # C
106 1 0.000000 9.896000 4.292000 5.201000 # C
107 2 0.000000 6.783000 4.679999 5.341000 # H
108 2 0.000000 7.649000 5.233000 3.882000 # H
109 2 0.000000 8.279000 6.974000 5.421000 # H
110 2 0.000000 8.278000 5.860000 6.813000 # H
111 4 0.000000 8.560000 14.558999 7.591000 # O
112 4 0.000000 7.952000 16.172001 6.143001 # O
113 4 0.000000 6.802000 14.184999 6.163001 # O
114 1 0.000000 9.262999 15.737000 7.956999 # C
115 1 0.000000 9.188999 16.568001 6.717000 # C
116 1 0.000000 7.691000 14.905999 6.593000 # C
117 2 0.000000 10.291000 15.504999 8.248000 # H
118 2 0.000000 8.745000 16.201000 8.803999 # H
119 2 0.000000 9.195999 17.640999 6.927999 # H
120 2 0.000000 9.991000 16.334999 6.008000 # H
121 4 0.000000 5.868000 9.333000 5.223000 # O
122 4 0.000000 7.050000 11.071000 4.417000 # O
123 4 0.000000 7.978000 8.972000 4.395000 # O
124 1 0.000000 4.980000 10.438000 5.135000 # C
125 1 0.000000 5.909000 11.607999 5.072000 # C
126 1 0.000000 7.050000 9.724000 4.655000 # C
127 2 0.000000 4.315000 10.475000 6.001000 # H
128 2 0.000000 4.381000 10.330000 4.224000 # H
129 2 0.000000 5.493000 12.446000 4.507999 # H
130 2 0.000000 6.211000 11.956000 6.065001 # H
131 4 0.000000 10.015999 11.957000 19.426998 # O
132 4 0.000000 8.617000 11.564000 17.706999 # O
133 4 0.000000 10.079000 13.329000 17.588999 # O
134 1 0.000000 9.413000 10.692000 19.657999 # C
135 1 0.000000 8.201000 10.735000 18.783001 # C
136 1 0.000000 9.613000 12.371000 18.187000 # C
137 2 0.000000 9.164999 10.563000 20.715000 # H
138 2 0.000000 10.120000 9.910999 19.356001 # H
139 2 0.000000 7.907000 9.745999 18.423000 # H
140 2 0.000000 7.346000 11.209000 19.275999 # H
141 4 0.000000 10.171000 18.856001 20.153000 # O
142 4 0.000000 10.745999 20.755999 21.214998 # O
143 4 0.000000 9.212999 20.839998 19.508999 # O
144 1 0.000000 10.930000 18.483999 21.294001 # C
145 1 0.000000 11.651000 19.747000 21.640999 # C
146 1 0.000000 9.974000 20.208000 20.226999 # C
147 2 0.000000 11.610000 17.662001 21.061001 # H
148 2 0.000000 10.237000 18.167000 22.082001 # H
149 2 0.000000 11.857000 19.834000 22.711000 # H
150 2 0.000000 12.586000 19.862000 21.083998 # H
151 4 0.000000 1.636000 6.085001 15.517999 # O
152 4 0.000000 3.345000 4.629000 15.367000 # O
153 4 0.000000 1.543000 4.398000 13.966000 # O
154 1 0.000000 2.694000 6.599000 16.313000 # C
155 1 0.000000 3.551000 5.396000 16.545000 # C
156 1 0.000000 2.122000 4.984000 14.868000 # C
157 2 0.000000 2.313000 7.030000 17.242001 # H
158 2 0.000000 3.211000 7.377000 15.740999 # H
159 2 0.000000 4.606999 5.649000 16.667000 # H
160 2 0.000000 3.220000 4.806000 17.406000 # H
161 4 0.000000 28.392000 23.061001 30.110001 # O
162 4 0.000000 29.103998 24.900002 29.023998 # O
163 4 0.000000 30.622000 23.283998 29.614998 # O
164 1 0.000000 27.236998 23.755999 29.662998 # C
165 1 0.000000 27.756001 25.134001 29.407000 # C
166 1 0.000000 29.476999 23.708998 29.586000 # C
167 2 0.000000 26.451000 23.736000 30.421000 # H
168 2 0.000000 26.871998 23.270000 28.750999 # H
169 2 0.000000 27.209000 25.650002 28.613998 # H
170 2 0.000000 27.754999 25.756002 30.309000 # H
171 4 0.000000 30.022999 22.551001 17.398001 # O
172 4 0.000000 28.257000 21.325001 18.064999 # O
173 4 0.000000 29.104998 22.934000 19.466000 # O
174 1 0.000000 29.568001 21.823999 16.266001 # C
175 1 0.000000 28.760998 20.724998 16.879999 # C
176 1 0.000000 29.127001 22.326000 18.406000 # C
177 2 0.000000 30.408001 21.450001 15.676999 # H
178 2 0.000000 28.961000 22.492001 15.646000 # H
179 2 0.000000 27.944000 20.391001 16.233999 # H
180 2 0.000000 29.372999 19.863001 17.162001 # H
181 4 0.000000 18.912001 20.915001 17.239000 # O
182 4 0.000000 17.030001 20.524998 16.066000 # O
183 4 0.000000 18.634001 18.889000 16.197001 # O
184 1 0.000000 18.013000 21.976999 17.524998 # C
185 1 0.000000 17.045000 21.909000 16.388000 # C
186 1 0.000000 18.228998 20.007999 16.475000 # C
187 2 0.000000 18.539999 22.933001 17.572998 # H
188 2 0.000000 17.538000 21.778000 18.491999 # H
189 2 0.000000 16.046000 22.256001 16.665001 # H
190 2 0.000000 17.389000 22.466000 15.510999 # H
191 4 0.000000 11.382000 16.820000 1.334000 # O
192 4 0.000000 11.299000 19.014997 1.829000 # O
193 4 0.000000 9.519000 17.670000 2.370000 # O
194 1 0.000000 12.682000 17.347000 1.116000 # C
195 1 0.000000 12.430000 18.816000 0.993000 # C
196 1 0.000000 10.631999 17.820997 1.888000 # C
197 2 0.000000 13.132999 16.921000 0.217000 # H
198 2 0.000000 13.305999 17.101000 1.983000 # H
199 2 0.000000 13.277000 19.419001 1.332000 # H
200 2 0.000000 12.163001 19.110001 34.973000 # H
201 4 0.000000 22.541998 5.407000 27.510000 # O
202 4 0.000000 23.990999 7.083000 27.108000 # O
203 4 0.000000 24.689001 4.909000 26.870998 # O
204 1 0.000000 21.792999 6.613000 27.493000 # C
205 1 0.000000 22.839998 7.659000 27.708998 # C
206 1 0.000000 23.819998 5.725000 27.137999 # C
207 2 0.000000 21.031998 6.612000 28.278000 # H
208 2 0.000000 21.304001 6.705000 26.517000 # H
209 2 0.000000 22.587000 8.611000 27.234999 # H
210 2 0.000000 23.049997 7.828000 28.768999 # H
211 4 0.000000 15.891000 24.831001 28.246000 # O
212 4 0.000000 15.876000 25.961002 30.193001 # O
213 4 0.000000 15.690999 23.672998 30.216997 # O
214 1 0.000000 16.260000 26.171000 27.954998 # C
215 1 0.000000 15.764999 26.919998 29.150997 # C
216 1 0.000000 15.809000 24.726000 29.607000 # C
217 2 0.000000 15.796999 26.510998 27.025000 # H
218 2 0.000000 17.350000 26.216999 27.853001 # H
219 2 0.000000 16.365999 27.805998 29.369999 # H
220 2 0.000000 14.714000 27.211000 29.056997 # H
221 4 0.000000 9.503000 11.729999 30.657000 # O
222 4 0.000000 8.145000 13.067001 29.459000 # O
223 4 0.000000 7.240000 11.664999 31.035000 # O
224 1 0.000000 10.331000 12.642000 29.951000 # C
225 1 0.000000 9.432000 13.132999 28.860998 # C
226 1 0.000000 8.208000 12.113001 30.438000 # C
227 2 0.000000 11.224000 12.143001 29.566999 # H
228 2 0.000000 10.630999 13.441000 30.638000 # H
229 2 0.000000 9.666000 14.154000 28.551001 # H
230 2 0.000000 9.441000 12.478000 27.983999 # H
231 4 0.000000 26.532999 8.967999 19.365000 # O
232 4 0.000000 25.580999 6.959000 19.013000 # O
233 4 0.000000 24.247999 8.814000 19.228001 # O
234 1 0.000000 27.575998 8.063000 19.032999 # C
235 1 0.000000 26.953999 6.729000 19.292999 # C
236 1 0.000000 25.353003 8.294000 19.204000 # C
237 2 0.000000 28.461000 8.242000 19.649000 # H
238 2 0.000000 27.836000 8.206000 17.979000 # H
239 2 0.000000 27.358000 5.942999 18.648001 # H
240 2 0.000000 27.048000 6.419000 20.339001 # H
241 4 0.000000 30.396997 6.069000 11.672999 # O
242 4 0.000000 32.283001 5.347000 10.678000 # O
243 4 0.000000 30.993999 3.860000 11.859000 # O
244 1 0.000000 30.853001 7.117000 10.830000 # C
245 1 0.000000 32.289001 6.765000 10.609000 # C
246 1 0.000000 31.205997 4.989000 11.442000 # C
247 2 0.000000 30.725998 8.089000 11.311000 # H
248 2 0.000000 30.268997 7.094000 9.902999 # H
249 2 0.000000 32.661999 7.107999 9.639999 # H
250 2 0.000000 32.939999 7.149000 11.401000 # H
251 4 0.000000 2.913000 31.313999 32.152000 # O
252 4 0.000000 3.837000 32.807999 30.743998 # O
253 4 0.000000 3.448000 33.408001 32.924999 # O
254 1 0.000000 3.258000 30.612999 30.966999 # C
255 1 0.000000 3.395000 31.709997 29.958998 # C
256 1 0.000000 3.404000 32.584999 32.022999 # C
257 2 0.000000 2.483000 29.889997 30.700001 # H
258 2 0.000000 4.202000 30.083000 31.138998 # H
259 2 0.000000 4.118000 31.473000 29.174999 # H
260 2 0.000000 2.438000 31.975998 29.497997 # H
261 4 0.000000 24.469002 8.067000 32.216000 # O
262 4 0.000000 24.855000 10.261000 31.896999 # O
263 4 0.000000 26.632000 8.818000 32.061001 # O
264 1 0.000000 23.219999 8.671000 31.913000 # C
265 1 0.000000 23.474001 10.118000 32.195000 # C
266 1 0.000000 25.428001 9.029000 32.058998 # C
267 2 0.000000 22.423000 8.255000 32.534000 # H
268 2 0.000000 22.992001 8.484000 30.857998 # H
269 2 0.000000 22.868998 10.779999 31.570999 # H
270 2 0.000000 23.316999 10.373000 33.248001 # H
271 4 0.000000 24.745001 24.593000 33.272995 # O
272 4 0.000000 23.249998 23.400000 34.462002 # O
273 4 0.000000 23.457001 25.653002 34.848999 # O
274 1 0.000000 24.659000 23.309999 32.669998 # C
275 1 0.000000 24.059002 22.472000 33.754002 # C
276 1 0.000000 23.787001 24.641003 34.249001 # C
277 2 0.000000 25.645000 22.955999 32.361000 # H
278 2 0.000000 24.010002 23.382999 31.790998 # H
279 2 0.000000 23.458000 21.646999 33.363998 # H
280 2 0.000000 24.813002 22.075001 34.441002 # H
281 4 0.000000 23.323000 23.212997 20.400000 # O
282 4 0.000000 21.706999 24.762001 20.635000 # O
283 4 0.000000 21.899000 23.627998 18.649000 # O
284 1 0.000000 23.281998 23.570000 21.773998 # C
285 1 0.000000 22.570999 24.885002 21.754997 # C
286 1 0.000000 22.275000 23.848000 19.791000 # C
287 2 0.000000 24.289001 23.641998 22.190001 # H
288 2 0.000000 22.721998 22.799999 22.315998 # H
289 2 0.000000 22.000998 25.069000 22.670000 # H
290 2 0.000000 23.249998 25.725000 21.579000 # H
291 4 0.000000 7.119000 28.329998 5.341000 # O
292 4 0.000000 7.860000 27.065001 3.633000 # O
293 4 0.000000 6.351000 28.743998 3.218000 # O
294 1 0.000000 8.200000 27.552999 5.835000 # C
295 1 0.000000 8.298000 26.445997 4.834000 # C
296 1 0.000000 7.046999 28.103998 3.993000 # C
297 2 0.000000 7.992000 27.190001 6.844000 # H
298 2 0.000000 9.097000 28.180000 5.855000 # H
299 2 0.000000 9.317000 26.064001 4.728000 # H
300 2 0.000000 7.623000 25.614000 5.061999 # H
301 4 0.000000 12.769001 3.316000 12.738001 # O
302 4 0.000000 13.419999 5.241000 13.706999 # O
303 4 0.000000 12.028001 5.314000 11.883000 # O
304 1 0.000000 13.408000 2.975000 13.959000 # C
305 1 0.000000 14.204000 4.201000 14.272999 # C
306 1 0.000000 12.680001 4.681000 12.701001 # C
307 2 0.000000 14.032000 2.086000 13.838999 # H
308 2 0.000000 12.635000 2.774000 14.710000 # H
309 2 0.000000 14.337000 4.352000 15.346999 # H
310 2 0.000000 15.183999 4.200000 13.784000 # H
311 4 0.000000 2.501000 18.487000 29.202997 # O
312 4 0.000000 1.854000 16.532000 28.295000 # O
313 4 0.000000 0.324000 17.802998 29.440001 # O
314 1 0.000000 3.560000 18.044001 28.366999 # C
315 1 0.000000 3.271000 16.584999 28.209999 # C
316 1 0.000000 1.457000 17.623999 29.018000 # C
317 2 0.000000 4.531000 18.231998 28.832001 # H
318 2 0.000000 3.503000 18.587000 27.417999 # H
319 2 0.000000 3.620000 16.188000 27.252998 # H
320 2 0.000000 3.690000 15.985000 29.022999 # H
321 4 0.000000 20.306999 33.637001 8.465000 # O
322 4 0.000000 19.563000 31.725000 7.539000 # O
323 4 0.000000 18.058001 33.362999 8.105000 # O
324 1 0.000000 21.445997 32.924999 8.003000 # C
325 1 0.000000 20.931000 31.527998 7.864000 # C
326 1 0.000000 19.205000 32.946999 8.042000 # C
327 2 0.000000 22.271000 33.000999 8.715000 # H
328 2 0.000000 21.756998 33.354000 7.044000 # H
329 2 0.000000 21.442999 30.966999 7.078000 # H
330 2 0.000000 20.986998 30.966999 8.802000 # H
331 4 0.000000 5.505000 3.323000 23.812000 # O
332 4 0.000000 3.947000 2.461000 22.434999 # O
333 4 0.000000 3.376000 2.977000 24.597000 # O
334 1 0.000000 6.054000 3.330000 22.502001 # C
335 1 0.000000 5.200000 2.340000 21.778000 # C
336 1 0.000000 4.201000 2.925000 23.695999 # C
337 2 0.000000 7.109000 3.045000 22.518000 # H
338 2 0.000000 5.960000 4.342000 22.093000 # H
339 2 0.000000 5.106000 2.565000 20.712000 # H
340 2 0.000000 5.558000 1.312000 21.898001 # H
341 4 0.000000 5.912000 27.709997 25.111002 # O
342 4 0.000000 4.964000 25.901001 26.059002 # O
343 4 0.000000 6.225000 25.646000 24.158003 # O
344 1 0.000000 5.409000 28.115999 26.375999 # C
345 1 0.000000 4.416000 27.045000 26.698000 # C
346 1 0.000000 5.744000 26.355000 25.030003 # C
347 2 0.000000 4.954999 29.108000 26.316998 # H
348 2 0.000000 6.242001 28.142000 27.086998 # H
349 2 0.000000 4.311000 26.879000 27.772999 # H
350 2 0.000000 3.430000 27.245001 26.265999 # H
351 4 0.000000 24.637001 31.315001 18.798000 # O
352 4 0.000000 23.070999 29.892998 19.566000 # O
353 4 0.000000 25.285000 29.303999 19.691999 # O
354 1 0.000000 23.406000 32.021999 18.819998 # C
355 1 0.000000 22.392000 30.922998 18.862000 # C
356 1 0.000000 24.411001 30.098000 19.381001 # C
357 2 0.000000 23.302000 32.655998 17.936998 # H
358 2 0.000000 23.381998 32.647999 19.719000 # H
359 2 0.000000 21.476997 31.215000 19.384001 # H
360 2 0.000000 22.136000 30.550999 17.865000 # H
361 4 0.000000 2.053000 7.017000 8.823000 # O
362 4 0.000000 1.134000 7.978000 10.638999 # O
363 4 0.000000 1.620000 5.736000 10.677000 # O
364 1 0.000000 2.087000 8.421000 8.615000 # C
365 1 0.000000 1.065000 8.925999 9.582999 # C
366 1 0.000000 1.604000 6.811999 10.098999 # C
367 2 0.000000 1.844000 8.670000 7.579000 # H
368 2 0.000000 3.096000 8.781000 8.844999 # H
369 2 0.000000 1.290000 9.932000 9.946000 # H
370 2 0.000000 0.052000 8.909999 9.168000 # H
371 4 0.000000 16.929001 33.537998 4.260000 # O
372 4 0.000000 17.851997 31.517998 4.625000 # O
373 4 0.000000 15.666999 31.881001 5.223000 # O
374 1 0.000000 18.179001 33.521000 3.586000 # C
375 1 0.000000 18.903997 32.398998 4.257000 # C
376 1 0.000000 16.719999 32.276001 4.745999 # C
377 2 0.000000 18.695000 34.479000 3.693000 # H
378 2 0.000000 17.997000 33.327000 2.523000 # H
379 2 0.000000 19.615999 31.900999 3.592000 # H
380 2 0.000000 19.423000 32.719002 5.166000 # H
381 4 0.000000 10.484999 5.778000 29.044001 # O
382 4 0.000000 11.711000 4.002000 29.686001 # O
383 4 0.000000 10.180000 3.760000 27.993000 # O
384 1 0.000000 11.497000 6.261001 29.916000 # C
385 1 0.000000 11.924000 5.028000 30.644999 # C
386 1 0.000000 10.741000 4.451000 28.830999 # C
387 2 0.000000 11.102000 7.030000 30.584000 # H
388 2 0.000000 12.302001 6.689000 29.309000 # H
389 2 0.000000 12.972001 5.063000 30.952999 # H
390 2 0.000000 11.299000 4.821000 31.520000 # H
391 4 0.000000 21.202999 3.059000 31.129999 # O
392 4 0.000000 20.667000 1.785000 29.352999 # O
393 4 0.000000 22.361998 3.321000 29.166998 # O
394 1 0.000000 20.311001 2.054000 31.590000 # C
395 1 0.000000 19.653997 1.591000 30.329000 # C
396 1 0.000000 21.490000 2.772000 29.823997 # C
397 2 0.000000 19.599001 2.462000 32.311001 # H
398 2 0.000000 20.898001 1.264000 32.070999 # H
399 2 0.000000 19.351000 0.541000 30.374001 # H
400 2 0.000000 18.788998 2.204000 30.058998 # H
401 4 0.000000 26.165003 14.178000 32.615002 # O
402 4 0.000000 25.891001 13.875000 30.401999 # O
403 4 0.000000 27.297001 15.528999 31.146000 # O
404 1 0.000000 25.452002 12.961000 32.445000 # C
405 1 0.000000 24.909000 13.086000 31.057999 # C
406 1 0.000000 26.521000 14.610999 31.366999 # C
407 2 0.000000 24.667002 12.859001 33.198002 # H
408 2 0.000000 26.158003 12.130001 32.544998 # H
409 2 0.000000 24.791000 12.117000 30.563997 # H
410 2 0.000000 23.954998 13.623000 31.028000 # H
411 4 0.000000 12.395000 11.170000 10.056000 # O
412 4 0.000000 12.253001 13.411999 10.205999 # O
413 4 0.000000 14.298999 12.397000 10.430000 # O
414 1 0.000000 11.086000 11.534999 9.644000 # C
415 1 0.000000 10.925999 12.906001 10.219000 # C
416 1 0.000000 13.092000 12.332001 10.246999 # C
417 2 0.000000 10.344999 10.829000 10.025999 # H
418 2 0.000000 11.054000 11.533999 8.549000 # H
419 2 0.000000 10.261000 13.537000 9.622999 # H
420 2 0.000000 10.572000 12.886001 11.254999 # H
421 4 0.000000 10.132999 15.190999 2.846000 # O
422 4 0.000000 9.433999 13.061000 3.050000 # O
423 4 0.000000 8.081000 14.763999 3.782000 # O
424 1 0.000000 11.036000 14.382000 2.107000 # C
425 1 0.000000 10.803999 13.019000 2.675000 # C
426 1 0.000000 9.121000 14.374000 3.273000 # C
427 2 0.000000 12.065001 14.723999 2.239000 # H
428 2 0.000000 10.769000 14.444999 1.046000 # H
429 2 0.000000 10.986000 12.223000 1.948000 # H
430 2 0.000000 11.402999 12.832001 3.572000 # H
431 4 0.000000 23.294001 31.246000 2.005000 # O
432 4 0.000000 24.770002 29.559998 2.220000 # O
433 4 0.000000 24.674002 30.726997 0.246000 # O
434 1 0.000000 23.306000 30.872997 3.375000 # C
435 1 0.000000 23.900000 29.501999 3.341000 # C
436 1 0.000000 24.282000 30.528997 1.386000 # C
437 2 0.000000 22.295998 30.884001 3.792000 # H
438 2 0.000000 23.931000 31.587000 3.923000 # H
439 2 0.000000 24.453001 29.260000 4.253000 # H
440 2 0.000000 23.149998 28.724998 3.158000 # H
441 4 0.000000 29.701000 18.813999 19.822998 # O
442 4 0.000000 27.750999 18.457001 20.889999 # O
443 4 0.000000 28.329998 17.111000 19.122999 # O
444 1 0.000000 29.715000 19.612000 20.997000 # C
445 1 0.000000 28.266998 19.694000 21.360998 # C
446 1 0.000000 28.572001 18.042999 19.877001 # C
447 2 0.000000 30.154999 20.591997 20.799000 # H
448 2 0.000000 30.309000 19.096998 21.760000 # H
449 2 0.000000 28.108999 19.798000 22.438000 # H
450 2 0.000000 27.750000 20.506001 20.841000 # H
451 4 0.000000 16.535999 22.936998 3.906000 # O
452 4 0.000000 16.174000 25.158003 3.905000 # O
453 4 0.000000 14.900000 23.811001 5.257999 # O
454 1 0.000000 17.603001 23.534000 3.184000 # C
455 1 0.000000 17.049999 24.876001 2.824000 # C
456 1 0.000000 15.788999 23.955999 4.432000 # C
457 2 0.000000 17.863001 22.936998 2.306000 # H
458 2 0.000000 18.474001 23.603001 3.845000 # H
459 2 0.000000 17.826000 25.641003 2.740000 # H
460 2 0.000000 16.465000 24.853003 1.899000 # H
461 4 0.000000 28.920998 31.300999 4.227000 # O
462 4 0.000000 30.675999 32.584999 4.810000 # O
463 4 0.000000 29.098000 32.051998 6.389000 # O
464 1 0.000000 29.840998 31.266998 3.146000 # C
465 1 0.000000 30.691000 32.473000 3.394000 # C
466 1 0.000000 29.525999 31.986000 5.245999 # C
467 2 0.000000 29.319998 31.309999 2.187000 # H
468 2 0.000000 30.412001 30.333998 3.206000 # H
469 2 0.000000 31.711998 32.352001 3.022000 # H
470 2 0.000000 30.257999 33.383999 2.969000 # H
471 4 0.000000 6.114000 21.837997 6.699000 # O
472 4 0.000000 8.072000 22.823997 7.210999 # O
473 4 0.000000 6.371000 22.834000 8.751000 # O
474 1 0.000000 7.041000 21.475000 5.687000 # C
475 1 0.000000 8.107000 22.514000 5.825000 # C
476 1 0.000000 6.811999 22.525997 7.653999 # C
477 2 0.000000 6.569000 21.483999 4.702000 # H
478 2 0.000000 7.410000 20.466000 5.901000 # H
479 2 0.000000 9.094000 22.146000 5.532000 # H
480 2 0.000000 7.880000 23.424000 5.260000 # H
481 4 0.000000 30.016001 30.195999 7.487000 # O
482 4 0.000000 30.240999 29.232000 9.508999 # O
483 4 0.000000 31.397999 31.159000 9.045000 # O
484 1 0.000000 29.023998 29.183998 7.579999 # C
485 1 0.000000 29.538000 28.314999 8.683000 # C
486 1 0.000000 30.622999 30.275999 8.711000 # C
487 2 0.000000 28.920998 28.647999 6.634000 # H
488 2 0.000000 28.068998 29.658001 7.832000 # H
489 2 0.000000 28.736000 27.822998 9.238999 # H
490 2 0.000000 30.243999 27.559000 8.325000 # H
491 4 0.000000 13.624999 23.372999 29.377001 # O
492 4 0.000000 11.763999 24.637001 29.441000 # O
493 4 0.000000 13.510999 25.273003 28.096001 # O
494 1 0.000000 12.640001 22.632000 30.082001 # C
495 1 0.000000 11.659000 23.684000 30.489000 # C
496 1 0.000000 13.012000 24.497999 28.898001 # C
497 2 0.000000 13.079001 22.112000 30.937000 # H
498 2 0.000000 12.205001 21.896000 29.396997 # H
499 2 0.000000 10.638999 23.301001 30.567999 # H
500 2 0.000000 11.934999 24.172003 31.429998 # H
501 4 0.000000 7.770000 29.793999 17.146000 # O
502 4 0.000000 8.751000 30.459999 15.232999 # O
503 4 0.000000 6.524001 30.900000 15.567999 # O
504 1 0.000000 9.169000 29.613998 17.309000 # C
505 1 0.000000 9.670000 29.608000 15.901000 # C
506 1 0.000000 7.585000 30.427999 15.947999 # C
507 2 0.000000 9.384999 28.683001 17.837999 # H
508 2 0.000000 9.561000 30.457001 17.889000 # H
509 2 0.000000 10.691000 29.989998 15.814999 # H
510 2 0.000000 9.618000 28.614998 15.443000 # H
511 4 0.000000 9.578000 32.390999 12.549001 # O
512 4 0.000000 8.440000 30.923998 11.277000 # O
513 4 0.000000 7.596000 33.035000 11.588000 # O
514 1 0.000000 10.430000 31.275999 12.333001 # C
515 1 0.000000 9.474000 30.200001 11.927999 # C
516 1 0.000000 8.459000 32.194000 11.786999 # C
517 2 0.000000 10.986000 31.025997 13.239999 # H
518 2 0.000000 11.137000 31.529999 11.534999 # H
519 2 0.000000 9.925000 29.469999 11.251000 # H
520 2 0.000000 9.044000 29.676998 12.788001 # H
521 4 0.000000 16.658001 4.689000 20.351999 # O
522 4 0.000000 18.843000 4.778999 20.888998 # O
523 4 0.000000 17.959000 6.375000 19.497000 # O
524 1 0.000000 16.872000 3.749000 21.394999 # C
525 1 0.000000 18.350000 3.528000 21.345999 # C
526 1 0.000000 17.830999 5.372000 20.184000 # C
527 2 0.000000 16.302999 2.832000 21.219000 # H
528 2 0.000000 16.547001 4.199000 22.339001 # H
529 2 0.000000 18.769999 3.276000 22.323999 # H
530 2 0.000000 18.634001 2.757000 20.622997 # H
531 4 0.000000 23.482000 24.663000 25.283001 # O
532 4 0.000000 23.268000 22.798000 26.525997 # O
533 4 0.000000 21.391001 23.791998 25.657001 # O
534 1 0.000000 24.787003 24.139002 25.479000 # C
535 1 0.000000 24.611000 23.240000 26.660997 # C
536 1 0.000000 22.603001 23.754000 25.808001 # C
537 2 0.000000 25.507002 24.940001 25.662001 # H
538 2 0.000000 25.079002 23.590998 24.576000 # H
539 2 0.000000 25.304003 22.393997 26.653000 # H
540 2 0.000000 24.707003 23.774998 27.610998 # H
541 4 0.000000 1.223000 15.131000 32.368000 # O
542 4 0.000000 3.084000 13.865000 32.398998 # O
543 4 0.000000 1.155000 13.008001 31.499998 # O
544 1 0.000000 2.299000 15.977999 32.744999 # C
545 1 0.000000 3.342000 15.008000 33.202000 # C
546 1 0.000000 1.765000 13.918000 32.040001 # C
547 2 0.000000 1.994000 16.670000 33.534000 # H
548 2 0.000000 2.615000 16.549000 31.865999 # H
549 2 0.000000 4.358000 15.377000 33.042000 # H
550 2 0.000000 3.221000 14.728000 34.252998 # H
551 4 0.000000 25.033003 5.044000 12.229001 # O
552 4 0.000000 26.922998 6.202000 11.840000 # O
553 4 0.000000 27.061001 3.987000 12.425001 # O
554 1 0.000000 24.652002 6.288000 11.661000 # C
555 1 0.000000 25.858000 7.140999 11.886999 # C
556 1 0.000000 26.398998 4.987000 12.187001 # C
557 2 0.000000 23.757998 6.684000 12.150000 # H
558 2 0.000000 24.441002 6.133000 10.597000 # H
559 2 0.000000 25.981003 7.909000 11.119000 # H
560 2 0.000000 25.857000 7.615000 12.874001 # H
561 4 0.000000 5.270000 16.254000 25.733002 # O
562 4 0.000000 6.933000 14.738000 25.801003 # O
563 4 0.000000 5.170000 14.411999 24.368002 # O
564 1 0.000000 6.320001 16.818001 26.504999 # C
565 1 0.000000 7.126000 15.622000 26.896000 # C
566 1 0.000000 5.739000 15.074000 25.223001 # C
567 2 0.000000 5.922999 17.358999 27.367998 # H
568 2 0.000000 6.881000 17.513000 25.871002 # H
569 2 0.000000 8.187000 15.854000 27.028000 # H
570 2 0.000000 6.747000 15.139000 27.802000 # H
571 4 0.000000 27.027000 24.310001 10.597000 # O
572 4 0.000000 26.749001 26.485001 10.088000 # O
573 4 0.000000 26.422001 25.784002 12.248000 # O
574 1 0.000000 27.521999 24.497999 9.278999 # C
575 1 0.000000 26.878000 25.781002 8.860999 # C
576 1 0.000000 26.706999 25.548000 11.084000 # C
577 2 0.000000 27.247000 23.658998 8.634000 # H
578 2 0.000000 28.613998 24.573002 9.326000 # H
579 2 0.000000 27.486000 26.344000 8.148000 # H
580 2 0.000000 25.878002 25.629999 8.441000 # H
581 4 0.000000 21.087000 9.203000 21.844000 # O
582 4 0.000000 23.193001 8.418000 21.981001 # O
583 4 0.000000 22.838999 10.684000 21.908001 # O
584 1 0.000000 20.997999 7.812000 22.114998 # C
585 1 0.000000 22.347998 7.307000 21.715000 # C
586 1 0.000000 22.411999 9.539000 21.910999 # C
587 2 0.000000 20.190001 7.352000 21.540998 # H
588 2 0.000000 20.802000 7.679000 23.184998 # H
589 2 0.000000 22.658998 6.433001 22.292000 # H
590 2 0.000000 22.407000 7.074000 20.646999 # H
591 4 0.000000 11.364000 11.753999 26.990997 # O
592 4 0.000000 10.435999 11.294000 24.992002 # O
593 4 0.000000 10.470000 13.461999 25.745001 # O
594 1 0.000000 11.694000 10.409999 26.675999 # C
595 1 0.000000 10.680000 10.052000 25.637001 # C
596 1 0.000000 10.733000 12.278001 25.895002 # C
597 2 0.000000 11.630999 9.774000 27.561998 # H
598 2 0.000000 12.718001 10.385999 26.286999 # H
599 2 0.000000 11.049999 9.309000 24.926003 # H
600 2 0.000000 9.741000 9.696999 26.074001 # H
601 4 0.000000 11.237000 32.341000 6.654000 # O
602 4 0.000000 13.338999 32.116001 5.881000 # O
603 4 0.000000 12.346000 34.185001 5.856999 # O
604 1 0.000000 11.676000 31.036999 7.007000 # C
605 1 0.000000 12.822000 30.807999 6.075000 # C
606 1 0.000000 12.311001 32.990002 6.108000 # C
607 2 0.000000 10.875000 30.306000 6.877000 # H
608 2 0.000000 11.985999 31.049000 8.058000 # H
609 2 0.000000 13.582999 30.146000 6.499001 # H
610 2 0.000000 12.501001 30.413998 5.106000 # H
611 4 0.000000 24.121000 7.291999 24.014002 # O
612 4 0.000000 24.841999 9.369999 24.493999 # O
613 4 0.000000 22.587999 8.971000 24.326002 # O
614 1 0.000000 25.511000 7.199000 24.292002 # C
615 1 0.000000 25.980001 8.608000 24.118999 # C