LAMMPS data file via write_data, version 22 Jul 2025, timestep = 25000, units = real

640 atoms
4 atom types

-1.486499 33.513501 xlo xhi
-0.121501 34.878499 ylo yhi
0.0475 35.0475 zlo zhi

Masses

1 12.0107
2 1.00794
3 126.904472
4 15.9994

Atoms # charge

364 1 -0.1279925034889039 2.5531671422892903 6.85971069561537 9.578887185550387 0 0 0
365 1 -0.09088019563563947 2.839601342996865 7.480957140774101 10.738059506315057 0 0 0
369 2 0.02022873137374844 3.34572997072065 8.463670752533814 10.754846246268157 0 0 0
368 2 0.07391692651579704 3.0773553089785057 7.2386733345005165 8.70809349943813 0 0 0
370 2 -0.005963247176248077 2.3731919066756624 7.16067149142737 11.690111629586468 0 0 0
367 2 0.01646153369197753 2.0081143115233586 5.977722725593723 9.408310835414804 0 0 0
5 3 0.6474104664144595 6.39399278064287 3.0890508194676753 11.250101146350577 0 0 0
101 4 -0.3362188908536383 10.22603742214393 4.416782983745839 7.560984287135222 0 0 0
102 4 -0.3517517033218566 10.305358747607043 3.6320083924593525 5.3648283605143545 0 0 0
103 4 -0.3723579964864779 10.631762544504 2.145333391818591 7.170067698607183 0 0 0
104 1 -0.006531046831522364 10.27994866378387 5.736446433190416 6.617586376029704 0 0 0
105 1 -0.02101406214225012 9.971626804971915 5.181297126807864 5.2552165157255 0 0 0
106 1 0.4583474782681043 10.39080203839811 3.359198305813484 6.703247437660797 0 0 0
107 2 0.09480377047458842 11.313299579274652 6.089629220780347 6.7229454727098386 0 0 0
108 2 0.08835436562013232 9.583160488056794 6.493724729292641 6.972747613950464 0 0 0
109 2 0.1155633049268364 8.892020427247143 5.242639752191989 5.01847614954737 0 0 0
110 2 0.1482189828637941 10.51716269223639 5.651586393759958 4.428401985659232 0 0 0
28 3 0.5598097269840154 10.796751671692634 4.860654898612252 11.661837441958923 0 0 0
7 3 0.5974404515358642 8.2793857811411 8.076937707057917 0.8196135956584102 0 0 1
27 3 0.5669164641072073 10.970591395762794 0.19447018728166296 4.887473026003958 0 0 0
123 4 -0.3824346525844289 9.120220897635928 7.169110334774556 3.496149085470212 0 0 0
303 4 -0.4517607007990714 8.016964408284649 4.270998062050109 11.25024058543572 0 0 0
126 1 0.4451546346889335 9.76355385803536 8.13276451931594 4.122718703140602 0 0 0
121 4 -0.3374157352098681 10.555629264584697 7.83462033439173 5.205784738156191 0 0 0
555 1 -0.01890329129972966 24.090253376196383 5.197739918893017 11.610696749723637 0 0 0
556 1 0.4725346097949787 24.989990449602807 3.300561731738469 10.64275386897576 0 0 0
552 4 -0.3077699260069273 24.765796705850608 4.652232917199904 10.341266728719065 0 0 0
559 2 0.1048763803147692 23.41964451325214 5.984535708273773 11.33369661345239 0 0 0
553 4 -0.280775449404887 25.69484655631307 2.5303344699601125 9.892341875129224 0 0 0
250 2 0.06454001061989963 28.717195093345026 4.3345094425062785 8.445935919633813 0 0 0
6 3 0.5331270854736063 31.48879364807531 2.1547881608788693 6.6916499560027 0 0 0
242 4 -0.3370140953375892 30.607552132311703 3.8791002071349237 9.624025195660256 0 0 0
244 1 0.0327275623870695 29.850968241370023 6.0493865848119235 9.31292593221109 0 0 0
245 1 -0.04415315376516493 29.249646086809413 4.675510426636424 9.349502305298977 0 0 0
246 1 0.4428710733243549 31.412847916769422 4.7350745562777385 10.346606141309916 0 0 0
248 2 0.05366451616222417 29.1395378851004 6.873576761438378 9.418686644265188 0 0 0
249 2 0.1394953122232044 28.584936493568772 4.577438097756802 10.201987145613579 0 0 0
243 4 -0.358091170058573 32.587245166159185 4.345324185955583 10.754615623105373 0 0 0
241 4 -0.3354446743584978 30.89786537534081 6.017894336009656 10.439467206682778 0 0 0
247 2 0.0007058487382933243 30.29012844680256 6.180222705194927 8.315578741387707 0 0 0
463 4 -0.3574825288830534 29.270224571518476 0.3866119976229463 6.61170454083403 0 1 0
134 1 -0.1175491343338378 3.2412063931265167 12.199393247056426 8.179195100337546 0 0 0
135 1 -0.1000292378388994 3.8933129225102667 11.780280079151687 9.263429320753499 0 0 0
52 4 -0.2969580441716398 -0.954951234643656 14.583633236255746 2.114556390575509 1 0 0
140 2 0.05862484597398018 4.983274649456485 11.860606771467817 9.290235124854393 0 0 0
137 2 0.07060696805845608 3.7689361355676745 12.62417428335891 7.327062793902823 0 0 0
59 2 0.04533477800192831 -0.8915457282851206 13.518423929576821 4.030074361968569 1 0 0
138 2 0.06096111222862607 2.1516322620086634 12.206419096670187 8.090936355752946 0 0 0
139 2 0.0334592730521615 3.389608842798238 11.453130882245596 10.159360609507775 0 0 0
197 2 0.1177450033984736 12.017312982358089 15.026064805981642 0.7306001638318761 0 0 0
127 2 0.03153670462107125 11.990609491322285 9.381709106172197 5.910182458619478 0 0 0
128 2 0.0318378108854355 10.592384468499159 9.257687758657518 6.87089031567602 0 0 0
124 1 0.02059500699926664 10.905024437813095 9.24452213859525 5.829625472741712 0 0 0
129 2 0.08337476240021598 9.375512938041904 10.75337890063345 5.5096312581269355 0 0 0
111 4 -0.3353390659784027 9.830505751903356 16.700705585315248 5.482521463057209 0 0 0
112 4 -0.3095550276786117 8.929168734824255 14.596539209065517 4.986705709849159 0 0 0
113 4 -0.335477498682574 10.981906078693177 14.772816063014412 6.118033594352095 0 0 0
114 1 0.009228578771957846 8.410403841089162 16.926155339080527 4.898691128803636 0 0 0
115 1 -0.01805223274786569 8.124574229770037 15.637482770659451 4.186915336356578 0 0 0
116 1 0.4716053997981193 9.968624106730507 15.33243415296068 5.560108733627124 0 0 0
118 2 0.06673697064864023 7.7351878727163985 17.118711533477978 5.742772859304774 0 0 0
120 2 0.08791785786955184 8.500826158908767 15.659973273371323 3.172662821006044 0 0 0
122 4 -0.3495886401401471 9.63347541723984 9.45885661244875 3.7826971533439555 0 0 0
125 1 -0.01714704800526142 10.181106404778948 10.266649558582248 4.981426588343522 0 0 0
130 2 0.07755500239419298 10.785429018214101 11.081045046577911 4.623285081045958 0 0 0
423 4 -0.3120817368395341 5.749084703129829 16.99873637996424 0.4837061559129342 0 0 0
119 2 0.08215877159523011 7.065947034409425 15.38476841511831 4.119103233756163 0 0 0
200 2 0.09570865691149327 11.69386264579008 15.008797514233628 3.202917440672862 0 0 1
417 2 0.1314866944799667 12.251169238896374 13.72800756604436 7.661452014874481 0 0 0
421 4 -0.3153162101545368 6.866454643284708 14.971743247217006 0.09209468210677674 0 0 0
198 2 0.05469846187558763 12.36127517722066 16.752656533017422 1.0354495217838433 0 0 0
194 1 -0.01608096084634963 12.602310264796095 15.742097532028334 1.337003030348282 0 0 0
199 2 0.02388917634679568 12.77880875354505 16.398201692594522 3.386300118493111 0 0 0
195 1 -0.01660365773956849 12.573473504934443 15.501692906775403 2.8022088020397375 0 0 0
420 2 0.1247176322262118 12.566716579387416 16.122068719988512 7.386444423522515 0 0 0
192 4 -0.3621510523390621 13.927665904262719 14.493855468760728 2.922569000843652 0 0 0
419 2 0.06949857603740367 13.461716716613688 15.589037007071747 5.947463381807235 0 0 0
191 4 -0.2967469079312155 14.130366644891863 15.5529940677708 0.9028193814212784 0 0 0
415 1 -0.01195007366192521 13.39516387288176 15.509071336208738 7.055685518761699 0 0 0
196 1 0.4465013371133111 14.709656937263846 14.797061838336056 1.8591263150568256 0 0 0
414 1 0.009766959334316538 13.272379579477647 14.08445130705253 7.5423471365395915 0 0 0
418 2 0.02156753855421796 13.707973878812894 13.376234027694089 6.810961577866243 0 0 0
411 4 -0.3088114247968936 13.99379602948388 14.062073510051732 8.89010163559432 0 0 0
416 1 0.4768546632038445 14.980573384814551 15.05000694557196 8.745112359726233 0 0 0
412 4 -0.3145052188489575 14.694980270859416 15.978771196237151 7.760621651523939 0 0 0
413 4 -0.2794944095726959 16.109278216880245 15.075419112401283 9.370463692841852 0 0 0
8 3 0.5286406095379586 16.77490197265826 13.215242964044823 3.688323336026715 0 0 0
193 4 -0.3949795569915344 16.020127191981253 14.468047162470151 1.7317589830634195 0 0 0
62 4 -0.304913753289576 19.474657102098305 8.671077424676982 11.657407895069579 0 0 0
54 1 -0.002204862463110371 32.16573996760639 14.462542908707873 3.550532894276662 0 0 0
51 4 -0.3010571083130161 31.773616078661398 15.131135181256454 2.2167019376202224 0 0 0
55 1 0.005685020527115239 33.425884199933826 13.700795083442964 3.2043986029163936 0 0 0
56 1 0.4798679920307605 32.9809756814198 15.27894600408724 1.5209654468663112 0 0 0
57 2 0.0422733889359472 31.360279737201 13.847257798715447 3.9423695870935505 0 0 0
58 2 0.08958003729273648 32.36042547211247 15.222113662315943 4.3091286114233895 0 0 0
60 2 0.06091401268268373 33.23482815339276 12.709853908026647 2.7398345473452608 0 0 0
53 4 -0.2857365842621556 33.096714141566835 15.943314535655258 0.44372464585289484 0 0 0
151 4 -0.3426069610744439 1.5654962757779334 3.1115285896597342 15.353299635474318 0 0 0
153 4 -0.3024253192383481 -0.3771765001809974 3.4811274041251483 16.887711328712463 0 0 0
156 1 0.3496342096165018 0.6113951167822265 3.326544756966604 16.135271700104074 0 0 0
26 3 0.63286382741585 3.659302988451854 0.9417264567081874 17.568391360572583 0 0 0
152 4 -0.4818556951347596 5.2773468865970115 2.247682898473595 17.21348129174932 0 0 0
331 4 -0.2925452896086023 4.728597819588094 1.9092952079901213 22.565291448802927 0 0 0
336 1 0.4719505545925451 4.792684033954324 1.752895440638207 21.18183659233268 0 0 0
333 4 -0.3447979830922226 3.9565021754738576 0.9096141766268736 20.645672755629473 0 0 0
363 4 -0.4984669482704018 0.6695997412735449 8.580886606088992 12.534116094850798 0 0 0
518 2 0.05644111339921356 2.2757406268991978 0.29174497951495904 14.249078861476539 0 1 0
338 2 0.06691651591412986 4.938574852709084 3.892255925905972 23.253240473928386 0 0 0
2 3 0.6282870911192829 -0.7988991420664029 6.870556542428956 11.738938527900201 0 0 0
332 4 -0.349708324828543 5.738430872185178 2.4783350341509105 20.514483711280825 0 0 0
339 2 0.03437550278532722 6.256582315460225 4.4898920841967 21.300119857013406 0 0 0
10 3 0.623928703729333 7.116952645884644 2.500311126304653 16.84375975624581 0 0 0
301 4 -0.4137986756871102 7.172751921861241 2.8062555424484383 13.05372894690112 0 0 0
302 4 -0.3919402968186527 9.227900688841455 3.964497653101918 13.389591811130845 0 0 0
306 1 0.3373560852594131 8.145595396073396 3.722113436430164 12.620686702184752 0 0 0
340 2 0.03730240174786703 7.398911181820948 3.3138815463050095 21.611517720054945 0 0 0
335 1 0.006062621427829956 6.358137436542198 3.456789888223951 21.628526831404134 0 0 0
334 1 -0.006970920764958267 5.648271521935227 3.142489292879266 22.912592008515475 0 0 0
507 2 0.05657101389069191 16.152067406311616 7.088419269066563 14.79259088382558 0 1 0
504 1 -0.0983402498311654 16.345536632329683 8.133103681049553 14.634611599298085 0 1 0
523 4 -0.3065665273220031 18.97091693915851 7.009646441911948 19.72135206632204 0 0 0
307 2 0.05820507586956386 16.043698899874244 2.4350860754928796 20.15689131018357 0 0 0
308 2 0.06374630675525128 16.593372532311182 2.2881042933840807 21.877594085617304 0 0 0
304 1 -0.1053173342977567 16.282629141710817 2.9438645078644656 21.077323300139753 0 0 0
310 2 0.1020333404257856 16.15748843981095 4.917723650762576 20.331695799103276 0 0 0
305 1 -0.1397151870070553 16.2886430441222 4.27200162681911 21.184940292934787 0 0 0
309 2 0.1105835326140131 16.546195966270922 4.783654176987162 22.10260787786379 0 0 0
510 2 0.1341849169352265 17.725655419939287 8.29326863626061 16.259308123804107 0 1 0
240 2 0.039370437361559 24.57666836679537 6.698891133191822 23.028490413646747 0 0 0
526 1 0.4620721395544914 19.970553755612844 6.374505959162027 20.20185739734212 0 0 0
558 2 0.1052568926937265 22.442903235698218 3.797521313847153 11.812408656337759 0 0 0
522 4 -0.3050955611845451 20.018169525369984 5.919006174647746 21.50626531764904 0 0 0
551 4 -0.3114514960166982 24.38720338286627 2.8225133049792483 11.793778631457577 0 0 0
521 4 -0.3242987356072103 21.125075972714004 6.037842392314592 19.469329493392156 0 0 0
528 2 0.08717212479144773 21.5717335407376 4.04499711633549 20.138633139185874 0 0 0
524 1 4.254121025488999e-05 21.886412763590776 5.039413834714521 20.336991950071003 0 0 0
527 2 0.05796460976933853 22.955596148227155 5.078250414823382 20.12812827220598 0 0 0
525 1 -0.03472292867646159 21.504579841563906 5.484059545968233 21.72515264829454 0 0 0
529 2 0.129997863799549 21.57011779230983 4.737433369203889 22.494077524692166 0 0 0
530 2 0.07951282278280308 22.102170909838225 6.331331931159047 22.014341812271866 0 0 0
61 4 -0.2939009112612269 20.423923666836238 8.322581271525763 13.766984179388457 0 0 0
63 4 -0.2966918560815183 20.509486805917327 6.608400948605716 12.204623042904245 0 0 0
66 1 0.4748439911790268 20.159207403991125 7.809823044249146 12.519241880096049 0 0 0
560 2 0.06306720045552362 24.802773753742635 5.674368683425609 12.265656832635075 0 0 0
231 4 -0.3100670038163272 24.478770355916968 3.768694381536941 22.76864829640784 0 0 0
234 1 -0.01438528170306401 25.68793637728419 4.838530050944752 22.664874415109008 0 0 0
237 2 0.03993678458649128 25.88708626611102 5.096904530927449 21.649188188544695 0 0 0
557 2 0.07356083124237778 23.318833458308177 4.0588828040360445 13.28357111258788 0 0 0
554 1 -0.01886127946676565 23.43632661950323 3.984918389569058 12.207734732423505 0 0 0
590 2 0.1515922527448026 21.37157552238015 8.417844253059974 18.527988707530348 0 0 0
238 2 0.09002654605585629 26.56495651064497 4.337555037239537 23.04524089953007 0 0 0
33 3 0.6242935713725078 1.9137707537785495 9.388555718256002 13.825134222969783 0 0 0
570 2 0.06437297543758583 3.8738152643345 15.141740053433928 22.38000429566732 0 0 0
565 1 0.009447971044165504 4.906548686040112 15.478990280150049 22.365890223846716 0 0 0
362 4 -0.3951377127521699 0.12068132652047076 10.103733859871621 14.395735442133288 0 0 0
366 1 0.3415653779703216 -0.35715742378909127 9.317427732532977 13.3611295071848 0 0 0
562 4 -0.31663689242017 4.950190638937907 16.99263346312426 22.740930178394013 0 0 0
569 2 0.05698777134756414 5.271688266236566 15.318985390562743 21.35477196107701 0 0 0
568 2 0.1080015157106705 6.796075398929539 14.85148251687686 23.20723445872753 0 0 0
147 2 0.02549964066741054 9.14686993672858 16.55544118863969 22.93493604417818 0 0 0
508 2 0.03869106298192584 15.762302131206134 8.682108641884087 13.905077816431566 0 1 0
505 1 -0.1411024231962873 17.22147833610211 8.784443933174888 15.460185798375978 0 1 0
509 2 0.07116082605925056 17.301334186679227 9.854001647753627 15.377776442638735 0 1 0
69 2 0.06111472392848548 17.96385134615018 9.77155451592179 12.772317340724426 0 0 0
12 3 0.549460445074992 13.498080076361745 14.182348170317848 23.05722974107704 0 0 0
132 4 -0.5154066086926762 14.950442218503644 15.597469051149055 21.19297272372688 0 0 0
17 3 0.6211503837731548 15.882001277024681 16.765691556130395 19.914621557974293 0 0 0
136 1 0.3196048634295361 15.292468272418045 16.672176669814363 22.183076735548674 0 0 0
65 1 0.004324311582776283 19.042271183171394 9.84296515900534 12.549948575568518 0 0 0
70 2 0.06078155973067417 19.16055776919991 10.80414099304754 12.047679573545619 0 0 0
42 4 -0.4041119039163388 19.493345171745208 16.5533958608158 20.214332479008647 0 0 0
68 2 0.09919687752240224 19.305302985188924 9.990500846295728 14.73837706175158 0 0 0
619 2 0.06650314762758307 25.906529014157982 10.937543697720498 23.35127303399822 0 0 0
611 4 -0.3439633182788043 23.126957630043755 11.420252579944608 22.965545641079974 0 0 0
589 2 0.08028835147877464 23.069179828259177 8.742669083642001 18.724211464817753 0 0 0
617 2 0.06671665523234416 23.435451299075467 9.292528800774953 22.90176296741479 0 0 0
25 3 0.6070581024173747 19.519685880996455 14.672629530301002 21.22600908247632 0 0 0
620 2 0.0345151780389974 25.787493352610674 9.46060335910504 22.429360911635417 0 0 0
615 1 0.003771005422113581 25.264063264869584 10.377437439511025 22.687018410956725 0 0 0
64 1 -0.03018979587447809 19.85359733905346 9.763304405500753 13.82946055971493 0 0 0
612 4 -0.3267350950660715 24.90512803545585 11.193893921159958 21.43932104134761 0 0 0
67 2 0.1217042578801868 20.669564294223164 10.500741599224119 13.833684960405257 0 0 0
616 1 0.4241931939630224 23.68957573052053 11.81510468058166 21.764986161894964 0 0 0
585 1 -0.03409231027496087 22.124739516543567 9.198815355024594 18.49859859105135 0 0 0
613 4 -0.3737299635820458 23.12543736265964 12.741836504293232 21.04915843787478 0 0 0
587 2 0.08343044200775269 21.221227943683928 10.082691834996313 20.275582004749232 0 0 0
584 1 -0.02296438887682626 21.726505651151506 10.372706181605299 19.371316856861334 0 0 0
588 2 0.1293685376997019 22.61393954108017 10.947856217548733 19.678498537388197 0 0 0
46 1 0.3343028080267063 20.613788738020478 16.006442915930336 19.578077633237566 0 0 0
582 4 -0.3003673461926652 22.118984026536086 9.793278300094366 17.089541790014103 0 0 0
9 3 0.6140269128918566 23.144857762920704 15.006155367991544 18.247521899872645 0 0 0
581 4 -0.307618127903274 20.917567286643322 11.299746025748425 18.43631809524029 0 0 0
583 4 -0.3264405974304023 20.94712786823507 11.560937180214856 16.092024646808568 0 0 0
586 1 0.4681290311789447 21.303472992033612 10.915761813334422 17.15356120969651 0 0 0
43 4 -0.4373108039088479 20.751855065924218 14.556456461228354 19.64773885996837 0 0 0
41 4 -0.3397859519963221 21.399772866336292 16.782723548213664 18.780266723920345 0 0 0
614 1 0.001490377905822897 23.92983473692564 10.14932029589262 23.335796871953317 0 0 0
361 4 -0.3095282560564517 33.35386650195088 8.870439341787968 13.307726093438237 -1 0 0
636 1 0.453257732031565 26.71482254173623 17.364590283572014 17.833634523315464 0 0 0
633 4 -0.3395733209832709 26.876400969177347 16.145507925897018 17.466095813715853 0 0 0
23 3 0.6366278862702631 28.32382843275486 15.13200293252265 21.847796994358458 0 0 0
443 4 -0.4777059665345006 26.710104930172005 15.001784878059931 22.743302951971263 0 0 0
35 3 0.5944293772623799 -0.5163483435716458 0.6178786324304464 33.745563053071585 0 0 0
253 4 -0.3731091967358158 -0.2802505399376985 1.5554343364235212 31.87543049233713 0 1 0
256 1 0.361079540080713 0.7205725233865415 0.5583602838393729 31.679063319448833 0 1 0
252 4 -0.3551118187188643 1.2013045039090946 0.35684101233486487 30.42800212676524 0 1 0
207 2 0.0601144670388865 4.159457119972853 3.354876147264371 26.938817019163313 1 0 0
205 1 -0.111078957371928 3.765648902743282 5.434092666208043 27.108160481212852 1 0 0
210 2 0.03977664323964947 4.629382086067891 5.778127264287132 26.540878306451077 1 0 0
204 1 -0.1264225756325179 3.520929773770779 4.1638918780802365 27.3211734351457 1 0 0
209 2 0.06985270966738119 3.138733884494715 6.189541774118516 27.553912283069984 1 0 0
208 2 0.102382740103706 2.6704652860075715 3.85765947543238 27.90680625614464 1 0 0
49 2 0.08040751433991428 1.326196372275917 7.948452882665047 24.565750390534784 1 0 0
45 1 -0.1207297615697387 1.9614417084230693 7.125995843428827 24.263429793281343 1 0 0
48 2 0.07785614438762242 0.3927595959187363 5.843144542583541 23.76664575155637 1 0 0
44 1 -0.1350337545071024 1.4583379243962502 5.940179397270659 23.8597343880979 1 0 0
50 2 0.05350775168811951 3.056813808011704 7.227503555657492 24.32295423894328 1 0 0
251 4 -0.4530306971501128 1.3241012100964367 -0.06323912301675813 32.80367239306375 0 1 0
47 2 0.08902455938307668 2.079506334357512 5.1208910375235694 23.519980399057616 1 0 0
259 2 0.08625768859642211 5.7932994973712155 1.1272376861570361 25.898313546173448 0 1 0
387 2 0.03077281337760214 10.548510196557281 7.776166694792569 33.106331601269275 0 0 0
381 4 -0.3229198187382982 9.567850624039046 5.765239324025541 33.33656260352242 0 0 0
383 4 -0.3784900945966959 10.396362971957242 3.6794618521362104 34.10021670202728 0 0 0
384 1 -0.002621666650809908 10.064408781625554 6.97485721708122 32.476574735566324 0 0 0
388 2 0.0521380814246738 9.319855327636075 7.505433603397665 31.84855654874329 0 0 0
386 1 0.4305956772581221 10.571921317151098 4.791786527484428 33.36408453000918 0 0 0
337 2 0.06427386939113397 6.2779813903984065 2.903464804849748 23.74977959839946 0 0 0
385 1 0.01667783773655927 11.09399389569716 6.058909916508278 31.73970195292484 0 0 0
382 4 -0.3429035509035679 11.735826076783358 4.995051411098767 32.58861191580422 0 0 0
389 2 0.04667700631547012 10.61909826402549 5.61525138355272 30.86557542178558 0 0 0
1 3 0.5054007898423374 12.051346536107701 1.5491808049374838 33.37962332160433 0 0 0
255 1 -0.128013471546831 6.550941354565336 0.8339323218039983 26.61559515580796 0 1 0
260 2 0.04109996321347954 6.667139475307352 1.5961108788326228 27.378044852801008 0 1 0
390 2 0.06818252573290143 11.898813122830585 6.649544986779163 31.28948785362799 0 0 0
399 2 0.06111097604138528 17.267951472749647 2.0227787171462217 29.33859448548987 0 0 0
392 4 -0.2928576815426995 17.944354829095648 3.5176251703493246 30.73724053937896 0 0 0
400 2 0.04390241360894073 18.373675539872377 1.388937306720009 30.666603903083985 0 0 0
395 1 0.007471596602542152 18.15935465266764 2.2172380967437597 30.022049431090593 0 0 0
393 4 -0.2674854131379238 18.051786167476664 5.770306241574978 30.05426298769861 0 0 0
396 1 0.4540824434264559 18.4401584319425 4.5437025105401005 29.86886413071146 0 0 0
394 1 0.04928107048305815 19.4098433845332 2.7254006499218772 29.228538552464634 0 0 0
391 4 -0.3281339056996527 19.31517254233689 4.179701681176126 28.80188940362847 0 0 0
398 2 0.0007565377953293317 19.54773144006907 2.158777548362601 28.248334463422676 0 0 0
20 3 0.5647319441547731 23.815278685252693 5.768865609578824 29.420781612559132 0 0 0
397 2 -0.01236997124216889 20.385591664329166 2.5186929619866247 29.747535180110667 0 0 0
203 4 -0.4801642908626261 24.157897350896974 3.894912319788908 28.39822547052885 0 0 0
22 3 0.590987954846095 23.1414740989104 2.5337068987891525 26.95381106521165 0 1 0
239 2 0.04046990864988266 26.044109958170182 6.568224910792689 24.02743283625574 0 0 0
232 4 -0.343066117546834 24.306003513065694 5.1440097440298125 24.601625040525857 0 0 0
235 1 0.0008791950654413808 25.245629500099138 5.976436071828837 23.542720711818657 0 0 0
261 4 -0.337742199554567 26.352437529934157 8.373520340651824 31.277866061268387 0 0 0
267 2 -0.07175285497749798 25.174319432979193 6.603668381458508 32.019436580930204 0 0 0
264 1 0.04326192938281513 25.937492193888417 7.34499702988634 32.36065412334216 0 0 0
233 4 -0.3693433447477236 22.80911644050867 3.2748124902647073 24.29067938582737 0 0 0
236 1 0.44366952382507 23.850788658829597 4.044170051109104 23.94573516446023 0 0 0
268 2 0.04771629618956902 25.477246947714423 7.903939955032694 33.17821845810681 0 0 0
270 2 0.06951888981605416 27.376937387652966 5.735185162820919 32.26659806585052 0 0 0
265 1 -0.00637082849194405 27.26058547186512 6.689990409130679 32.763700439497086 0 0 0
269 2 0.0582559852329437 27.383626861989335 6.515141291772767 33.83609387502527 0 0 0
201 4 -0.2897811262218066 29.16660684739994 7.834205814782623 26.98941552413721 0 0 0
202 4 -0.2977121297855924 28.9831503732411 5.405864478097482 26.85487162609983 0 0 0
206 1 0.3889562027018246 28.931191155928676 6.637089986005285 26.838032678390334 0 0 0
266 1 0.4810191782689009 27.738516249897625 8.499521887587653 31.34720499078588 0 0 0
262 4 -0.2925600031705917 28.362691004959377 7.631533582619982 32.245529798426226 0 0 0
430 2 0.1094704141071938 5.118906875315502 13.819632204526103 32.97860388495996 0 0 -1
29 3 0.6041052109639188 4.334567662881705 17.236241311376993 27.77769683246353 0 0 0
566 1 0.4488210410999251 5.024837839322826 16.940485198936155 24.119052636252967 0 0 0
561 4 -0.3171782150204336 5.332680981939466 15.69527525538895 24.65477426494762 0 0 0
422 4 -0.3077224325384017 5.509305990574855 15.891480868556123 33.418272520240585 0 0 -1
567 2 0.1087195277282906 5.518156644215621 13.74784746155292 23.589159256489722 0 0 0
599 2 0.05009726114702179 8.588658976773315 9.33505067509688 25.767226484164162 0 0 0
427 2 0.09568273281124585 6.938481096010287 12.992109174123016 34.178168783561205 0 0 -1
598 2 0.05808671987516159 9.968107369078576 9.66450126173186 27.790244532030687 0 0 0
425 1 -0.02443773977061966 5.950319850798779 14.476813545602056 32.9449695463432 0 0 -1
595 1 -0.003320565291865418 9.253944741605629 10.190734466788388 25.80735280460033 0 0 0
83 4 -0.3637872900830463 6.360513062691704 9.681405558082934 34.31663236490905 0 0 0
81 4 -0.3542847406686223 8.066606688037076 10.062285486293433 32.78003392284384 0 0 0
597 2 0.08473572178442204 9.168865693448263 11.208617193255662 27.8151933768445 0 0 0
86 1 0.454603467159756 6.775514663853899 10.224795822773975 33.19295713493578 0 0 0
428 2 0.09513119365708529 8.028548237688574 14.098065632486612 33.450704662478664 0 0 -1
82 4 -0.3131133987300576 6.002950603815476 11.015869878834147 32.37023639959434 0 0 0
85 1 -0.01239404341211249 6.932121154654221 11.532393103510113 31.202916255597007 0 0 0
89 2 0.07332511303528913 7.165284574970674 12.571452802027782 31.41729590039045 0 0 0
90 2 0.07802392347201059 6.459491688364496 11.558653749143858 30.2232685906234 0 0 0
74 1 -0.007116136220158803 9.17635308625937 17.331110102427374 33.634798484824096 0 0 0
84 1 -0.0010479791374748 8.082671728863527 10.576890423052705 31.27912845224291 0 0 0
87 2 0.04366602312455563 7.9338503563596285 9.69513620693958 30.652603186628703 0 0 0
88 2 0.06257668807294312 9.02954768592407 11.005722186604228 30.967348714583085 0 0 0
72 4 -0.3181006683651356 8.21663534415221 16.557971659192145 31.590278888670255 0 0 0
76 1 0.4628274168184995 9.405028443552643 15.873716388870818 31.841917345144175 0 0 0
221 4 -0.3212920857708419 7.6133836486459865 13.595925886978145 27.627324485675288 0 0 0
222 4 -0.3231819710888934 7.6712332770777385 13.68380235142028 25.28624917492852 0 0 0
223 4 -0.3111018020264903 5.705570279407994 13.04701046931144 26.378929803283256 0 0 0
224 1 -0.03359088898847456 9.00309153208893 14.227388077387019 27.19932918029014 0 0 0
225 1 0.01677093915120673 9.150810604531806 13.928217138457764 25.72902709509395 0 0 0
226 1 0.4670671429541369 6.939593498350495 13.418864654657115 26.42617179660358 0 0 0
227 2 0.1030587004258664 9.822762753260072 13.88655531123961 27.826750478463556 0 0 0
228 2 0.07806135653378701 8.900115329280819 15.285649335163411 27.407583973400243 0 0 0
229 2 0.000712044874620732 9.654125295240847 14.707119608014494 25.165274425534665 0 0 0
230 2 0.05537865870715104 9.754284626361876 13.028876041895794 25.559607711651687 0 0 0
591 4 -0.3191944774346929 11.124157108262708 11.247095653824099 26.868150221556885 0 0 0
592 4 -0.3085072302981642 10.548671312342952 9.971086387018367 24.995298681396434 0 0 0
594 1 -0.002396981960193542 9.788916916248482 10.558883376899146 27.183557833076108 0 0 0
596 1 0.4560783065845271 11.540028439978673 10.695984968842227 25.651345922384785 0 0 0
600 2 0.09049281455375978 8.688271175401395 10.995593927143913 25.32164727504394 0 0 0
73 4 -0.2965127846378534 9.797417303377523 14.861712580162537 31.14975205125599 0 0 0
78 2 0.1049107151960771 8.662509757525948 16.73207909687624 34.364414030950556 0 0 0
71 4 -0.3084237673973526 10.13081715353787 16.37630997090743 32.902788967398365 0 0 0
429 2 0.08339606972301819 6.223217236311055 14.551391485566786 31.901453375572707 0 0 -1
424 1 -0.01719334986869971 7.049507987140998 14.029176524070822 33.886903214038874 0 0 -1
426 1 0.4690224522654575 6.021780068505561 16.00662624898418 34.701974490956346 0 0 -1
564 1 -0.02235815133607234 5.737270494893842 14.785919243482425 23.421097971203324 0 0 0
593 4 -0.3244558223496353 12.717942905051077 10.854588119771586 25.149012788499927 0 0 0
131 4 -0.3326115772402136 15.131907854885092 16.394303335015252 23.503443945108668 0 0 0
278 2 0.05918629802847185 21.107332722990925 11.333007645586944 27.14941770250436 0 0 0
277 2 0.06463604210117152 22.488425261350287 11.22437791254252 28.372089793621782 0 0 0
274 1 -0.1162880471065045 21.602529385259157 11.725706162936797 28.02134131881261 0 0 0
618 2 0.04994033820882546 23.987619585193812 10.00861997957015 24.40320870021881 0 0 0
279 2 0.05171687797860011 20.215495808373166 13.317157684037372 28.376446150514234 0 0 0
13 3 0.5883897875260327 24.070183353370005 14.960108393679485 23.883948497977663 0 0 0
280 2 0.07871582024946458 21.72030239272847 13.256747562247261 29.45919441086759 0 0 0
275 1 -0.1134623116252098 21.115570621784695 12.780749753897627 28.690343835767802 0 0 0
403 4 -0.3090583462510381 25.87341535467758 14.67810023469231 26.719779805403757 0 0 0
410 2 0.05713646921118622 25.688965790246343 10.624459252852654 27.38610052972198 0 0 0
402 4 -0.3316885029209587 25.69826390915939 12.410283826020251 26.157824144639623 0 0 0
406 1 0.4760376873137357 26.24095303814621 13.445100841974273 26.88683895989247 0 0 0
405 1 0.01332374125762322 26.405064988101326 11.10979293797377 26.73747083773794 0 0 0
441 4 -0.322646701920085 26.013189952590967 16.817304012292663 24.14974151555581 0 0 0
401 4 -0.3110477144306496 27.24696432969907 13.109817369520398 27.766248969801694 0 0 0
446 1 0.3987864414571153 27.038125463539785 16.095091687375607 23.679600993650848 0 0 0
442 4 -0.3678611191566387 28.364490532071613 16.553059605187016 23.519634459369076 0 0 0
546 1 0.4152150025996806 32.107173839142085 12.246952266486199 28.281966229527864 -1 0 0
409 2 0.04850041526378433 26.66085921093141 10.392910668539301 25.984439443577596 0 0 0
541 4 -0.3836106608724961 30.669926258402075 12.372011557635803 28.281416901242142 -1 0 0
408 2 0.1432156443575956 28.48473820275081 11.541099392558495 26.80547914330899 0 0 0
263 4 -0.290069101083928 28.385838561747573 9.33776163432876 30.626110853941203 0 0 0
407 2 0.1500279614965755 27.859979142927944 11.094637600272936 28.40118330006808 0 0 0
15 3 0.6320730744687063 30.81085091056732 13.507644037726648 29.967101697168005 0 0 0
404 1 -0.07044085923403305 27.634391547199904 11.59194250937087 27.457822170112607 0 0 0
543 4 -0.4031231828125649 32.67213436594835 12.989464004136963 29.376404174353144 -1 0 0
542 4 -0.2490247130458874 32.653385091194714 11.182984270429397 27.796847306063466 -1 0 0